# vtk DataFile Version 3.0
TPZGeoMesh VTK Visualization
ASCII

DATASET UNSTRUCTURED_GRID
POINTS 128 float
0.5 0.5 0 
0.5 0.75 0 
0.25 0.75 0 
0.25 0.5 0 
0.5 0.625 0 
0.375 0.75 0 
0.25 0.625 0 
0.375 0.5 0 
0.5 0.75 0 
0.5 1 0 
0.25 1 0 
0.25 0.75 0 
0.5 0.875 0 
0.375 1 0 
0.25 0.875 0 
0.375 0.75 0 
0.25 0.75 0 
0.25 1 0 
0 1 0 
0 0.75 0 
0.25 0.875 0 
0.125 1 0 
0 0.875 0 
0.125 0.75 0 
0.25 0.5 0 
0.25 0.75 0 
0 0.75 0 
0 0.5 0 
0.25 0.625 0 
0.125 0.75 0 
0 0.625 0 
0.125 0.5 0 
0.5 1 0 
0.5 0.75 0 
0.75 0.75 0 
0.75 1 0 
0.5 0.875 0 
0.625 0.75 0 
0.75 0.875 0 
0.625 1 0 
0.5 0.75 0 
0.5 0.5 0 
0.75 0.5 0 
0.75 0.75 0 
0.5 0.625 0 
0.625 0.5 0 
0.75 0.625 0 
0.625 0.75 0 
0.75 0.75 0 
0.75 0.5 0 
1 0.5 0 
1 0.75 0 
0.75 0.625 0 
0.875 0.5 0 
1 0.625 0 
0.875 0.75 0 
0.75 1 0 
0.75 0.75 0 
1 0.75 0 
1 1 0 
0.75 0.875 0 
0.875 0.75 0 
1 0.875 0 
0.875 1 0 
0.5 0 0 
0.5 0.25 0 
0.25 0.25 0 
0.25 0 0 
0.5 0.125 0 
0.375 0.25 0 
0.25 0.125 0 
0.375 0 0 
0.5 0.25 0 
0.5 0.5 0 
0.25 0.5 0 
0.25 0.25 0 
0.5 0.375 0 
0.375 0.5 0 
0.25 0.375 0 
0.375 0.25 0 
0.25 0.25 0 
0.25 0.5 0 
0 0.5 0 
0 0.25 0 
0.25 0.375 0 
0.125 0.5 0 
0 0.375 0 
0.125 0.25 0 
0.25 0 0 
0.25 0.25 0 
0 0.25 0 
0 0 0 
0.25 0.125 0 
0.125 0.25 0 
0 0.125 0 
0.125 0 0 
1 0 0 
1 0.25 0 
0.75 0.25 0 
0.75 0 0 
1 0.125 0 
0.875 0.25 0 
0.75 0.125 0 
0.875 0 0 
1 0.25 0 
1 0.5 0 
0.75 0.5 0 
0.75 0.25 0 
1 0.375 0 
0.875 0.5 0 
0.75 0.375 0 
0.875 0.25 0 
0.75 0.25 0 
0.75 0.5 0 
0.5 0.5 0 
0.5 0.25 0 
0.75 0.375 0 
0.625 0.5 0 
0.5 0.375 0 
0.625 0.25 0 
0.75 0 0 
0.75 0.25 0 
0.5 0.25 0 
0.5 0 0 
0.75 0.125 0 
0.625 0.25 0 
0.5 0.125 0 
0.625 0 0 
CELLS 16 144
8 0 1 2 3 4 5 6 7
8 8 9 10 11 12 13 14 15
8 16 17 18 19 20 21 22 23
8 24 25 26 27 28 29 30 31
8 32 33 34 35 36 37 38 39
8 40 41 42 43 44 45 46 47
8 48 49 50 51 52 53 54 55
8 56 57 58 59 60 61 62 63
8 64 65 66 67 68 69 70 71
8 72 73 74 75 76 77 78 79
8 80 81 82 83 84 85 86 87
8 88 89 90 91 92 93 94 95
8 96 97 98 99 100 101 102 103
8 104 105 106 107 108 109 110 111
8 112 113 114 115 116 117 118 119
8 120 121 122 123 124 125 126 127

CELL_TYPES 16
23
23
23
23
23
23
23
23
23
23
23
23
23
23
23
23

CELL_DATA 16
FIELD FieldData 2
material 1 16 int
1
1
1
1
1
1
1
1
1
1
1
1
1
1
1
1
elindex 1 16 int
17
18
19
20
21
22
23
24
25
26
27
28
29
30
31
32
POINT_DATA 128
SCALARS Sol float
LOOKUP_TABLE default
-1.08626 
-1.46292 
-1.7448 
-1.25336 
-1.27459 
-1.60386 
-1.49908 
-1.16981 
-1.46292 
-3.22147e-12 
-4.47182e-12 
-1.7448 
-0.731459 
-3.84665e-12 
-0.872401 
-1.60386 
-1.7448 
-4.47182e-12 
-7.61587e-13 
7.53184e-13 
-0.872401 
-2.6167e-12 
-4.20143e-15 
-0.872401 
-1.25336 
-1.7448 
7.53184e-13 
2.26542e-12 
-1.49908 
-0.872401 
1.5093e-12 
-0.626678 
-3.22147e-12 
-1.46292 
1.15872 
2.04715e-12 
-0.731459 
-0.152098 
0.579361 
-5.87162e-13 
-1.46292 
-1.08626 
0.876901 
1.15872 
-1.27459 
-0.104678 
1.01781 
-0.152098 
1.15872 
0.876901 
8.23734e-12 
1.03496e-11 
1.01781 
0.438451 
9.29349e-12 
0.579361 
2.04715e-12 
1.15872 
1.03496e-11 
-2.65072e-13 
0.579361 
0.579361 
5.04228e-12 
8.91039e-13 
1.99322e-11 
1.43197 
1.6499 
2.09764e-11 
0.715984 
1.54094 
0.824952 
2.04543e-11 
1.43197 
-1.08626 
-1.25336 
1.6499 
0.172855 
-1.16981 
0.198274 
1.54094 
1.6499 
-1.25336 
2.26542e-12 
-3.58565e-12 
0.198274 
-0.626678 
-6.60115e-13 
0.824952 
2.09764e-11 
1.6499 
-3.58565e-12 
-3.0258e-13 
0.824952 
0.824952 
-1.94411e-12 
1.03369e-11 
-6.59101e-13 
-1.15896e-11 
-1.2526 
-1.80081e-11 
-6.12435e-12 
-0.626298 
-0.626298 
-9.33359e-12 
-1.15896e-11 
8.23734e-12 
0.876901 
-1.2526 
-1.67613e-12 
0.438451 
-0.187848 
-0.626298 
-1.2526 
0.876901 
-1.08626 
1.43197 
-0.187848 
-0.104678 
0.172855 
0.0896857 
-1.80081e-11 
-1.2526 
1.43197 
1.99322e-11 
-0.626298 
0.0896857 
0.715984 
9.62082e-13 
SCALARS Force float
LOOKUP_TABLE default
-69.3736 
-75.4528 
-80.0692 
-75.5487 
-100.376 
-120.381 
-108.296 
-109.161 
-75.4528 
33.3244 
39.6313 
-80.0692 
-18.5426 
49.8054 
-17.3462 
-120.381 
-80.0692 
39.6313 
-0 
87.6824 
-17.3462 
14.2536 
42.6971 
15.286 
-75.5487 
-80.0692 
87.6824 
63.1015 
-108.296 
15.286 
100.505 
4.55349 
33.3244 
-75.4528 
92.5251 
-23.8694 
-18.5426 
19.9383 
32.0195 
0.866134 
-75.4528 
-69.3736 
77.3832 
92.5251 
-100.376 
13.957 
116.004 
19.9383 
92.5251 
77.3832 
-5.79759 
-8.05602 
116.004 
70.2197 
-9.23413 
83.1253 
-23.8694 
92.5251 
-8.05602 
0 
32.0195 
83.1253 
-3.92289 
-22.9876 
59.8472 
100.062 
110.304 
71.1738 
133.832 
156.398 
149.825 
89.4455 
100.062 
-69.3736 
-75.5487 
110.304 
11.2839 
-109.161 
12.1636 
156.398 
110.304 
-75.5487 
63.1015 
-78.8977 
12.1636 
4.55349 
-11.3946 
0.00454719 
71.1738 
110.304 
-78.8977 
-0 
149.825 
0.00454719 
-84.707 
25.598 
0 
7.24891 
-106.297 
-42.8671 
7.78265 
-96.9873 
-133.035 
-41.2835 
7.24891 
-5.79759 
77.3832 
-106.297 
1.0469 
70.2197 
-13.083 
-96.9873 
-106.297 
77.3832 
-69.3736 
100.062 
-13.083 
13.957 
11.2839 
-17.1047 
-42.8671 
-106.297 
100.062 
59.8472 
-133.035 
-17.1047 
133.832 
1.55549 
SCALARS SolExact float
LOOKUP_TABLE default
-0.944112 
-1.31189 
-1.56017 
-1.12279 
-1.50374 
-1.9607 
-1.78833 
-1.41104 
-1.31189 
-0 
-0 
-1.56017 
-0.638825 
-0 
-0.759729 
-1.9607 
-1.56017 
-0 
-0 
-0 
-0.759729 
-0 
-0 
-0.561123 
-1.12279 
-1.56017 
-0 
-0 
-1.78833 
-0.561123 
-0 
-0.403818 
-0 
-1.31189 
0.939672 
0 
-0.638825 
-0.0340973 
0.457575 
-0 
-1.31189 
-0.944112 
0.676244 
0.939672 
-1.50374 
-0.0245384 
1.07709 
-0.0340973 
0.939672 
0.676244 
0 
0 
1.07709 
0.651262 
0 
0.904958 
0 
0.939672 
0 
0 
0.457575 
0.904958 
0 
0 
0 
1.18045 
1.40386 
0 
1.26737 
1.76426 
1.50723 
0 
1.18045 
-0.944112 
-1.12279 
1.40386 
0.170484 
-1.41104 
0.202749 
1.76426 
1.40386 
-1.12279 
-0 
0 
0.202749 
-0.403818 
0 
0.504906 
0 
1.40386 
0 
0 
1.50723 
0.504906 
0 
0 
-0 
-0 
-0.845529 
-0 
-0 
-0.814293 
-0.907786 
-0 
-0 
0 
0.676244 
-0.845529 
-0 
0.651262 
-0.122113 
-0.814293 
-0.845529 
0.676244 
-0.944112 
1.18045 
-0.122113 
-0.0245384 
0.170484 
0.0306812 
-0 
-0.845529 
1.18045 
0 
-0.907786 
0.0306812 
1.26737 
0 
VECTORS DSol float
0.668392 -1.50664 0 
1.12753 -1.50664 0 
1.12753 -1.96578 0 
0.668392 -1.96578 0 
0.897962 -1.50664 0 
1.12753 -1.73621 0 
0.897962 -1.96578 0 
0.668392 -1.73621 0 
1.12753 5.85167 0 
5.00139e-12 5.85167 0 
5.00139e-12 6.97921 0 
1.12753 6.97921 0 
0.563766 5.85167 0 
5.00139e-12 6.41544 0 
0.563766 6.97921 0 
1.12753 6.41544 0 
-6.97921 6.97921 0 
-1.48409e-11 6.97921 0 
-1.48409e-11 -6.05909e-12 0 
-6.97921 -6.05909e-12 0 
-3.4896 6.97921 0 
-1.48409e-11 3.4896 0 
-3.4896 -6.05909e-12 0 
-6.97921 3.4896 0 
-5.01343 -1.96578 0 
-6.97921 -1.96578 0 
-6.97921 -6.04894e-12 0 
-5.01343 -6.04894e-12 0 
-5.99632 -1.96578 0 
-6.97921 -0.98289 0 
-5.99632 -6.04894e-12 0 
-5.01343 -0.98289 0 
2.10745e-11 5.85167 0 
10.4866 5.85167 0 
10.4866 -4.63489 0 
2.10745e-11 -4.63489 0 
5.24328 5.85167 0 
10.4866 0.608391 0 
5.24328 -4.63489 0 
2.10745e-11 0.608391 0 
10.4866 -1.50664 0 
7.85264 -1.50664 0 
7.85264 1.12728 0 
10.4866 1.12728 0 
9.1696 -1.50664 0 
7.85264 -0.189677 0 
9.1696 1.12728 0 
10.4866 -0.189677 0 
-4.63489 1.12728 0 
-3.50761 1.12728 0 
-3.50761 8.44919e-12 0 
-4.63489 8.44919e-12 0 
-4.07125 1.12728 0 
-3.50761 0.563642 0 
-4.07125 8.44919e-12 0 
-4.63489 0.563642 0 
-9.24889e-12 -4.63489 0 
-4.63489 -4.63489 0 
-4.63489 -4.24588e-11 0 
-9.24889e-12 -4.24588e-11 0 
-2.31745 -4.63489 0 
-4.63489 -2.31745 0 
-2.31745 -4.24588e-11 0 
-9.24889e-12 -2.31745 0 
-4.17661e-12 5.72787 0 
-0.871743 5.72787 0 
-0.871743 6.59962 0 
-4.17661e-12 6.59962 0 
-0.435872 5.72787 0 
-0.871743 6.16374 0 
-0.435872 6.59962 0 
-4.17661e-12 6.16374 0 
-0.871743 -10.0729 0 
0.668392 -10.0729 0 
0.668392 -11.613 0 
-0.871743 -11.613 0 
-0.101676 -10.0729 0 
0.668392 -10.843 0 
-0.101676 -11.613 0 
-0.871743 -10.843 0 
6.59962 -11.613 0 
-5.01343 -11.613 0 
-5.01343 2.34043e-11 0 
6.59962 2.34043e-11 0 
0.793096 -11.613 0 
-5.01343 -5.80652 0 
0.793096 2.34043e-11 0 
6.59962 -5.80652 0 
8.51159e-11 6.59962 0 
6.59962 6.59962 0 
6.59962 -1.31323e-11 0 
8.51159e-11 -1.31323e-11 0 
3.29981 6.59962 0 
6.59962 3.29981 0 
3.29981 -1.31323e-11 0 
8.51159e-11 3.29981 0 
6.93959e-11 -4.3722e-11 0 
5.01039 -4.3722e-11 0 
5.01039 -5.01039 0 
6.93959e-11 -5.01039 0 
2.50519 -4.3722e-11 0 
5.01039 -2.50519 0 
2.50519 -5.01039 0 
6.93959e-11 -2.50519 0 
5.01039 7.93077e-11 0 
-3.50761 7.93077e-11 0 
-3.50761 8.51799 0 
5.01039 8.51799 0 
0.751391 7.93077e-11 0 
-3.50761 4.259 0 
0.751391 8.51799 0 
5.01039 4.259 0 
-10.7383 8.51799 0 
7.85264 8.51799 0 
7.85264 -10.0729 0 
-10.7383 -10.0729 0 
-1.44281 8.51799 0 
7.85264 -0.777457 0 
-1.44281 -10.0729 0 
-10.7383 -0.777457 0 
-1.51761e-10 -5.01039 0 
-10.7383 -5.01039 0 
-10.7383 5.72787 0 
-1.51761e-10 5.72787 0 
-5.36913 -5.01039 0 
-10.7383 0.358743 0 
-5.36913 5.72787 0 
-1.51761e-10 0.358743 0 
VECTORS Flux float
-1.50664 -0.668392 0 
-1.50664 -1.12753 0 
-1.96578 -1.12753 0 
-1.96578 -0.668392 0 
-1.50664 -0.897962 0 
-1.73621 -1.12753 0 
-1.96578 -0.897962 0 
-1.73621 -0.668392 0 
5.85167 -1.12753 0 
5.85167 1.75888e-11 0 
6.97921 8.46856e-12 0 
6.97921 -1.12753 0 
5.85167 -0.563766 0 
6.41544 1.35728e-11 0 
6.97921 -0.563766 0 
6.41544 -1.12753 0 
6.97921 6.97921 0 
6.97921 2.83109e-11 0 
-6.05909e-12 1.48409e-11 0 
-6.05909e-12 6.97921 0 
6.97921 3.4896 0 
3.4896 1.82084e-11 0 
-6.05909e-12 3.4896 0 
3.4896 6.97921 0 
-1.96578 5.01343 0 
-1.96578 6.97921 0 
-6.04894e-12 6.97921 0 
-6.04894e-12 5.01343 0 
-1.96578 5.99632 0 
-0.98289 6.97921 0 
-6.04894e-12 5.99632 0 
-0.98289 5.01343 0 
-5.85167 -1.51569e-12 0 
-5.85167 10.4866 0 
4.63489 10.4866 0 
4.63489 2.96453e-11 0 
-5.85167 5.24328 0 
-0.608391 10.4866 0 
4.63489 5.24328 0 
-0.608391 1.93377e-11 0 
1.50664 10.4866 0 
1.50664 7.85264 0 
-1.12728 7.85264 0 
-1.12728 10.4866 0 
1.50664 9.1696 0 
0.189677 7.85264 0 
-1.12728 9.1696 0 
0.189677 10.4866 0 
-1.12728 -4.63489 0 
-1.12728 -3.50761 0 
-8.44919e-12 -3.50761 0 
-8.44919e-12 -4.63489 0 
-1.12728 -4.07125 0 
-0.563642 -3.50761 0 
-8.44919e-12 -4.07125 0 
-0.563642 -4.63489 0 
4.63489 -6.78113e-13 0 
4.63489 -4.63489 0 
4.24588e-11 -4.63489 0 
4.24588e-11 -9.24889e-12 0 
4.63489 -2.31745 0 
2.31745 -4.63489 0 
4.24588e-11 -2.31745 0 
2.31745 -7.1062e-12 0 
5.72787 2.06165e-11 0 
5.72787 0.871743 0 
6.59962 0.871743 0 
6.59962 1.26899e-11 0 
5.72787 0.435872 0 
6.16374 0.871743 0 
6.59962 0.435872 0 
6.16374 1.69972e-11 0 
-10.0729 0.871743 0 
-10.0729 -0.668392 0 
-11.613 -0.668392 0 
-11.613 0.871743 0 
-10.0729 0.101676 0 
-10.843 -0.668392 0 
-11.613 0.101676 0 
-10.843 0.871743 0 
-11.613 -6.59962 0 
-11.613 5.01343 0 
2.34043e-11 5.01343 0 
2.34043e-11 -6.59962 0 
-11.613 -0.793096 0 
-5.80652 5.01343 0 
2.34043e-11 -0.793096 0 
-5.80652 -6.59962 0 
6.59962 -7.66026e-11 0 
6.59962 -6.59962 0 
-1.31323e-11 -6.59962 0 
-1.31323e-11 -8.51159e-11 0 
6.59962 -3.29981 0 
3.29981 -6.59962 0 
-1.31323e-11 -3.29981 0 
3.29981 -8.29876e-11 0 
-4.3722e-11 -6.93959e-11 0 
-4.3722e-11 -5.01039 0 
-5.01039 -5.01039 0 
-5.01039 -7.65873e-11 0 
-4.3722e-11 -2.50519 0 
-2.50519 -5.01039 0 
-5.01039 -2.50519 0 
-2.50519 -7.11937e-11 0 
7.93077e-11 -5.01039 0 
7.93077e-11 3.50761 0 
8.51799 3.50761 0 
8.51799 -5.01039 0 
7.93077e-11 -0.751391 0 
4.259 3.50761 0 
8.51799 -0.751391 0 
4.259 -5.01039 0 
8.51799 10.7383 0 
8.51799 -7.85264 0 
-10.0729 -7.85264 0 
-10.0729 10.7383 0 
8.51799 1.44281 0 
-0.777457 -7.85264 0 
-10.0729 1.44281 0 
-0.777457 10.7383 0 
-5.01039 1.4457e-10 0 
-5.01039 10.7383 0 
5.72787 10.7383 0 
5.72787 1.68201e-10 0 
-5.01039 5.36913 0 
0.358743 10.7383 0 
5.72787 5.36913 0 
0.358743 1.52534e-10 0 
VECTORS DSolExact float
6.31917 -7.30757 0 
8.78077 4.06223 0 
-6.75248 4.83105 0 
-4.85949 -8.6906 0 
10.0649 -1.38558 0 
0.986377 6.07127 0 
-7.73996 -1.64781 0 
0.709856 -10.9216 0 
8.78077 4.06223 0 
-0 3.59775 0 
0 4.27865 0 
-6.75248 4.83105 0 
4.27581 5.97652 0 
-0 5.37706 0 
-3.28813 7.10763 0 
0.986377 6.07127 0 
-6.75248 4.83105 0 
0 4.27865 0 
0 0 0 
-0 0 0 
-3.28813 7.10763 0 
0 1.53884 0 
-0 0 0 
-7.73638 1.73751 0 
-4.85949 -8.6906 0 
-6.75248 4.83105 0 
-0 0 0 
-0 -0 0 
-7.73996 -1.64781 0 
-7.73638 1.73751 0 
-0 -0 0 
-5.56756 -3.12561 0 
-0 3.59775 0 
8.78077 4.06223 0 
4.23939 -2.90968 0 
-0 -2.57698 0 
4.27581 5.97652 0 
10.3102 0.105582 0 
2.06438 -4.28084 0 
-0 0.0935091 0 
8.78077 4.06223 0 
6.31917 -7.30757 0 
3.05092 5.23424 0 
4.23939 -2.90968 0 
10.0649 -1.38558 0 
7.41986 -0.189931 0 
4.85935 0.992454 0 
10.3102 0.105582 0 
4.23939 -2.90968 0 
3.05092 5.23424 0 
-6.05095 -0 0 
-8.40808 0 0 
4.85935 0.992454 0 
-3.32348 5.04087 0 
-9.63767 -0 0 
-4.61812 -2.80219 0 
-0 -2.57698 0 
4.23939 -2.90968 0 
-8.40808 0 0 
0 0 0 
2.06438 -4.28084 0 
-4.61812 -2.80219 0 
-4.09433 0 0 
0 -2.48178 0 
-0 14.9618 0 
-7.90105 -5.38636 0 
6.07597 -6.40578 0 
0 17.7935 0 
-8.48281 4.6537 0 
-0.887555 -8.05027 0 
6.52334 5.53445 0 
-0 22.3614 0 
-7.90105 -5.38636 0 
6.31917 -7.30757 0 
-4.85949 -8.6906 0 
6.07597 -6.40578 0 
-1.14109 -9.60488 0 
0.709856 -10.9216 0 
0.877505 -11.4227 0 
-0.887555 -8.05027 0 
6.07597 -6.40578 0 
-4.85949 -8.6906 0 
-0 -0 0 
0 -0 0 
0.877505 -11.4227 0 
-5.56756 -3.12561 0 
0 -0 0 
6.96129 -2.30387 0 
0 17.7935 0 
6.07597 -6.40578 0 
0 -0 0 
0 0 0 
6.52334 5.53445 0 
6.96129 -2.30387 0 
0 0 0 
0 6.3995 0 
0 0 0 
7.56569 -0 0 
-3.81466 3.85812 0 
-0 -10.7168 0 
8.12276 0 0 
4.15545 3.71559 0 
-4.09553 -3.33333 0 
0 -10.3209 0 
7.56569 -0 0 
-6.05095 -0 0 
3.05092 5.23424 0 
-3.81466 3.85812 0 
1.09265 -0 0 
-3.32348 5.04087 0 
-0.550921 6.87974 0 
4.15545 3.71559 0 
-3.81466 3.85812 0 
3.05092 5.23424 0 
6.31917 -7.30757 0 
-7.90105 -5.38636 0 
-0.550921 6.87974 0 
7.41986 -0.189931 0 
-1.14109 -9.60488 0 
-9.27728 -0.139997 0 
-0 -10.7168 0 
-3.81466 3.85812 0 
-7.90105 -5.38636 0 
-0 14.9618 0 
-4.09553 -3.33333 0 
-9.27728 -0.139997 0 
-8.48281 4.6537 0 
-0 0.388872 0 
