# vtk DataFile Version 3.0
TPZGeoMesh VTK Visualization
ASCII

DATASET UNSTRUCTURED_GRID
POINTS 512 float
0.5 0.5 0 
0.5 0.625 0 
0.375 0.625 0 
0.375 0.5 0 
0.5 0.5625 0 
0.4375 0.625 0 
0.375 0.5625 0 
0.4375 0.5 0 
0.5 0.625 0 
0.5 0.75 0 
0.375 0.75 0 
0.375 0.625 0 
0.5 0.6875 0 
0.4375 0.75 0 
0.375 0.6875 0 
0.4375 0.625 0 
0.375 0.625 0 
0.375 0.75 0 
0.25 0.75 0 
0.25 0.625 0 
0.375 0.6875 0 
0.3125 0.75 0 
0.25 0.6875 0 
0.3125 0.625 0 
0.375 0.5 0 
0.375 0.625 0 
0.25 0.625 0 
0.25 0.5 0 
0.375 0.5625 0 
0.3125 0.625 0 
0.25 0.5625 0 
0.3125 0.5 0 
0.5 0.75 0 
0.5 0.875 0 
0.375 0.875 0 
0.375 0.75 0 
0.5 0.8125 0 
0.4375 0.875 0 
0.375 0.8125 0 
0.4375 0.75 0 
0.5 0.875 0 
0.5 1 0 
0.375 1 0 
0.375 0.875 0 
0.5 0.9375 0 
0.4375 1 0 
0.375 0.9375 0 
0.4375 0.875 0 
0.375 0.875 0 
0.375 1 0 
0.25 1 0 
0.25 0.875 0 
0.375 0.9375 0 
0.3125 1 0 
0.25 0.9375 0 
0.3125 0.875 0 
0.375 0.75 0 
0.375 0.875 0 
0.25 0.875 0 
0.25 0.75 0 
0.375 0.8125 0 
0.3125 0.875 0 
0.25 0.8125 0 
0.3125 0.75 0 
0.25 0.75 0 
0.25 0.875 0 
0.125 0.875 0 
0.125 0.75 0 
0.25 0.8125 0 
0.1875 0.875 0 
0.125 0.8125 0 
0.1875 0.75 0 
0.25 0.875 0 
0.25 1 0 
0.125 1 0 
0.125 0.875 0 
0.25 0.9375 0 
0.1875 1 0 
0.125 0.9375 0 
0.1875 0.875 0 
0.125 0.875 0 
0.125 1 0 
0 1 0 
0 0.875 0 
0.125 0.9375 0 
0.0625 1 0 
0 0.9375 0 
0.0625 0.875 0 
0.125 0.75 0 
0.125 0.875 0 
0 0.875 0 
0 0.75 0 
0.125 0.8125 0 
0.0625 0.875 0 
0 0.8125 0 
0.0625 0.75 0 
0.25 0.5 0 
0.25 0.625 0 
0.125 0.625 0 
0.125 0.5 0 
0.25 0.5625 0 
0.1875 0.625 0 
0.125 0.5625 0 
0.1875 0.5 0 
0.25 0.625 0 
0.25 0.75 0 
0.125 0.75 0 
0.125 0.625 0 
0.25 0.6875 0 
0.1875 0.75 0 
0.125 0.6875 0 
0.1875 0.625 0 
0.125 0.625 0 
0.125 0.75 0 
0 0.75 0 
0 0.625 0 
0.125 0.6875 0 
0.0625 0.75 0 
0 0.6875 0 
0.0625 0.625 0 
0.125 0.5 0 
0.125 0.625 0 
0 0.625 0 
0 0.5 0 
0.125 0.5625 0 
0.0625 0.625 0 
0 0.5625 0 
0.0625 0.5 0 
0.5 1 0 
0.5 0.875 0 
0.625 0.875 0 
0.625 1 0 
0.5 0.9375 0 
0.5625 0.875 0 
0.625 0.9375 0 
0.5625 1 0 
0.5 0.875 0 
0.5 0.75 0 
0.625 0.75 0 
0.625 0.875 0 
0.5 0.8125 0 
0.5625 0.75 0 
0.625 0.8125 0 
0.5625 0.875 0 
0.625 0.875 0 
0.625 0.75 0 
0.75 0.75 0 
0.75 0.875 0 
0.625 0.8125 0 
0.6875 0.75 0 
0.75 0.8125 0 
0.6875 0.875 0 
0.625 1 0 
0.625 0.875 0 
0.75 0.875 0 
0.75 1 0 
0.625 0.9375 0 
0.6875 0.875 0 
0.75 0.9375 0 
0.6875 1 0 
0.5 0.75 0 
0.5 0.625 0 
0.625 0.625 0 
0.625 0.75 0 
0.5 0.6875 0 
0.5625 0.625 0 
0.625 0.6875 0 
0.5625 0.75 0 
0.5 0.625 0 
0.5 0.5 0 
0.625 0.5 0 
0.625 0.625 0 
0.5 0.5625 0 
0.5625 0.5 0 
0.625 0.5625 0 
0.5625 0.625 0 
0.625 0.625 0 
0.625 0.5 0 
0.75 0.5 0 
0.75 0.625 0 
0.625 0.5625 0 
0.6875 0.5 0 
0.75 0.5625 0 
0.6875 0.625 0 
0.625 0.75 0 
0.625 0.625 0 
0.75 0.625 0 
0.75 0.75 0 
0.625 0.6875 0 
0.6875 0.625 0 
0.75 0.6875 0 
0.6875 0.75 0 
0.75 0.75 0 
0.75 0.625 0 
0.875 0.625 0 
0.875 0.75 0 
0.75 0.6875 0 
0.8125 0.625 0 
0.875 0.6875 0 
0.8125 0.75 0 
0.75 0.625 0 
0.75 0.5 0 
0.875 0.5 0 
0.875 0.625 0 
0.75 0.5625 0 
0.8125 0.5 0 
0.875 0.5625 0 
0.8125 0.625 0 
0.875 0.625 0 
0.875 0.5 0 
1 0.5 0 
1 0.625 0 
0.875 0.5625 0 
0.9375 0.5 0 
1 0.5625 0 
0.9375 0.625 0 
0.875 0.75 0 
0.875 0.625 0 
1 0.625 0 
1 0.75 0 
0.875 0.6875 0 
0.9375 0.625 0 
1 0.6875 0 
0.9375 0.75 0 
0.75 1 0 
0.75 0.875 0 
0.875 0.875 0 
0.875 1 0 
0.75 0.9375 0 
0.8125 0.875 0 
0.875 0.9375 0 
0.8125 1 0 
0.75 0.875 0 
0.75 0.75 0 
0.875 0.75 0 
0.875 0.875 0 
0.75 0.8125 0 
0.8125 0.75 0 
0.875 0.8125 0 
0.8125 0.875 0 
0.875 0.875 0 
0.875 0.75 0 
1 0.75 0 
1 0.875 0 
0.875 0.8125 0 
0.9375 0.75 0 
1 0.8125 0 
0.9375 0.875 0 
0.875 1 0 
0.875 0.875 0 
1 0.875 0 
1 1 0 
0.875 0.9375 0 
0.9375 0.875 0 
1 0.9375 0 
0.9375 1 0 
0.5 0 0 
0.5 0.125 0 
0.375 0.125 0 
0.375 0 0 
0.5 0.0625 0 
0.4375 0.125 0 
0.375 0.0625 0 
0.4375 0 0 
0.5 0.125 0 
0.5 0.25 0 
0.375 0.25 0 
0.375 0.125 0 
0.5 0.1875 0 
0.4375 0.25 0 
0.375 0.1875 0 
0.4375 0.125 0 
0.375 0.125 0 
0.375 0.25 0 
0.25 0.25 0 
0.25 0.125 0 
0.375 0.1875 0 
0.3125 0.25 0 
0.25 0.1875 0 
0.3125 0.125 0 
0.375 0 0 
0.375 0.125 0 
0.25 0.125 0 
0.25 0 0 
0.375 0.0625 0 
0.3125 0.125 0 
0.25 0.0625 0 
0.3125 0 0 
0.5 0.25 0 
0.5 0.375 0 
0.375 0.375 0 
0.375 0.25 0 
0.5 0.3125 0 
0.4375 0.375 0 
0.375 0.3125 0 
0.4375 0.25 0 
0.5 0.375 0 
0.5 0.5 0 
0.375 0.5 0 
0.375 0.375 0 
0.5 0.4375 0 
0.4375 0.5 0 
0.375 0.4375 0 
0.4375 0.375 0 
0.375 0.375 0 
0.375 0.5 0 
0.25 0.5 0 
0.25 0.375 0 
0.375 0.4375 0 
0.3125 0.5 0 
0.25 0.4375 0 
0.3125 0.375 0 
0.375 0.25 0 
0.375 0.375 0 
0.25 0.375 0 
0.25 0.25 0 
0.375 0.3125 0 
0.3125 0.375 0 
0.25 0.3125 0 
0.3125 0.25 0 
0.25 0.25 0 
0.25 0.375 0 
0.125 0.375 0 
0.125 0.25 0 
0.25 0.3125 0 
0.1875 0.375 0 
0.125 0.3125 0 
0.1875 0.25 0 
0.25 0.375 0 
0.25 0.5 0 
0.125 0.5 0 
0.125 0.375 0 
0.25 0.4375 0 
0.1875 0.5 0 
0.125 0.4375 0 
0.1875 0.375 0 
0.125 0.375 0 
0.125 0.5 0 
0 0.5 0 
0 0.375 0 
0.125 0.4375 0 
0.0625 0.5 0 
0 0.4375 0 
0.0625 0.375 0 
0.125 0.25 0 
0.125 0.375 0 
0 0.375 0 
0 0.25 0 
0.125 0.3125 0 
0.0625 0.375 0 
0 0.3125 0 
0.0625 0.25 0 
0.25 0 0 
0.25 0.125 0 
0.125 0.125 0 
0.125 0 0 
0.25 0.0625 0 
0.1875 0.125 0 
0.125 0.0625 0 
0.1875 0 0 
0.25 0.125 0 
0.25 0.25 0 
0.125 0.25 0 
0.125 0.125 0 
0.25 0.1875 0 
0.1875 0.25 0 
0.125 0.1875 0 
0.1875 0.125 0 
0.125 0.125 0 
0.125 0.25 0 
0 0.25 0 
0 0.125 0 
0.125 0.1875 0 
0.0625 0.25 0 
0 0.1875 0 
0.0625 0.125 0 
0.125 0 0 
0.125 0.125 0 
0 0.125 0 
0 0 0 
0.125 0.0625 0 
0.0625 0.125 0 
0 0.0625 0 
0.0625 0 0 
1 0 0 
1 0.125 0 
0.875 0.125 0 
0.875 0 0 
1 0.0625 0 
0.9375 0.125 0 
0.875 0.0625 0 
0.9375 0 0 
1 0.125 0 
1 0.25 0 
0.875 0.25 0 
0.875 0.125 0 
1 0.1875 0 
0.9375 0.25 0 
0.875 0.1875 0 
0.9375 0.125 0 
0.875 0.125 0 
0.875 0.25 0 
0.75 0.25 0 
0.75 0.125 0 
0.875 0.1875 0 
0.8125 0.25 0 
0.75 0.1875 0 
0.8125 0.125 0 
0.875 0 0 
0.875 0.125 0 
0.75 0.125 0 
0.75 0 0 
0.875 0.0625 0 
0.8125 0.125 0 
0.75 0.0625 0 
0.8125 0 0 
1 0.25 0 
1 0.375 0 
0.875 0.375 0 
0.875 0.25 0 
1 0.3125 0 
0.9375 0.375 0 
0.875 0.3125 0 
0.9375 0.25 0 
1 0.375 0 
1 0.5 0 
0.875 0.5 0 
0.875 0.375 0 
1 0.4375 0 
0.9375 0.5 0 
0.875 0.4375 0 
0.9375 0.375 0 
0.875 0.375 0 
0.875 0.5 0 
0.75 0.5 0 
0.75 0.375 0 
0.875 0.4375 0 
0.8125 0.5 0 
0.75 0.4375 0 
0.8125 0.375 0 
0.875 0.25 0 
0.875 0.375 0 
0.75 0.375 0 
0.75 0.25 0 
0.875 0.3125 0 
0.8125 0.375 0 
0.75 0.3125 0 
0.8125 0.25 0 
0.75 0.25 0 
0.75 0.375 0 
0.625 0.375 0 
0.625 0.25 0 
0.75 0.3125 0 
0.6875 0.375 0 
0.625 0.3125 0 
0.6875 0.25 0 
0.75 0.375 0 
0.75 0.5 0 
0.625 0.5 0 
0.625 0.375 0 
0.75 0.4375 0 
0.6875 0.5 0 
0.625 0.4375 0 
0.6875 0.375 0 
0.625 0.375 0 
0.625 0.5 0 
0.5 0.5 0 
0.5 0.375 0 
0.625 0.4375 0 
0.5625 0.5 0 
0.5 0.4375 0 
0.5625 0.375 0 
0.625 0.25 0 
0.625 0.375 0 
0.5 0.375 0 
0.5 0.25 0 
0.625 0.3125 0 
0.5625 0.375 0 
0.5 0.3125 0 
0.5625 0.25 0 
0.75 0 0 
0.75 0.125 0 
0.625 0.125 0 
0.625 0 0 
0.75 0.0625 0 
0.6875 0.125 0 
0.625 0.0625 0 
0.6875 0 0 
0.75 0.125 0 
0.75 0.25 0 
0.625 0.25 0 
0.625 0.125 0 
0.75 0.1875 0 
0.6875 0.25 0 
0.625 0.1875 0 
0.6875 0.125 0 
0.625 0.125 0 
0.625 0.25 0 
0.5 0.25 0 
0.5 0.125 0 
0.625 0.1875 0 
0.5625 0.25 0 
0.5 0.1875 0 
0.5625 0.125 0 
0.625 0 0 
0.625 0.125 0 
0.5 0.125 0 
0.5 0 0 
0.625 0.0625 0 
0.5625 0.125 0 
0.5 0.0625 0 
0.5625 0 0 
CELLS 64 576
8 0 1 2 3 4 5 6 7
8 8 9 10 11 12 13 14 15
8 16 17 18 19 20 21 22 23
8 24 25 26 27 28 29 30 31
8 32 33 34 35 36 37 38 39
8 40 41 42 43 44 45 46 47
8 48 49 50 51 52 53 54 55
8 56 57 58 59 60 61 62 63
8 64 65 66 67 68 69 70 71
8 72 73 74 75 76 77 78 79
8 80 81 82 83 84 85 86 87
8 88 89 90 91 92 93 94 95
8 96 97 98 99 100 101 102 103
8 104 105 106 107 108 109 110 111
8 112 113 114 115 116 117 118 119
8 120 121 122 123 124 125 126 127
8 128 129 130 131 132 133 134 135
8 136 137 138 139 140 141 142 143
8 144 145 146 147 148 149 150 151
8 152 153 154 155 156 157 158 159
8 160 161 162 163 164 165 166 167
8 168 169 170 171 172 173 174 175
8 176 177 178 179 180 181 182 183
8 184 185 186 187 188 189 190 191
8 192 193 194 195 196 197 198 199
8 200 201 202 203 204 205 206 207
8 208 209 210 211 212 213 214 215
8 216 217 218 219 220 221 222 223
8 224 225 226 227 228 229 230 231
8 232 233 234 235 236 237 238 239
8 240 241 242 243 244 245 246 247
8 248 249 250 251 252 253 254 255
8 256 257 258 259 260 261 262 263
8 264 265 266 267 268 269 270 271
8 272 273 274 275 276 277 278 279
8 280 281 282 283 284 285 286 287
8 288 289 290 291 292 293 294 295
8 296 297 298 299 300 301 302 303
8 304 305 306 307 308 309 310 311
8 312 313 314 315 316 317 318 319
8 320 321 322 323 324 325 326 327
8 328 329 330 331 332 333 334 335
8 336 337 338 339 340 341 342 343
8 344 345 346 347 348 349 350 351
8 352 353 354 355 356 357 358 359
8 360 361 362 363 364 365 366 367
8 368 369 370 371 372 373 374 375
8 376 377 378 379 380 381 382 383
8 384 385 386 387 388 389 390 391
8 392 393 394 395 396 397 398 399
8 400 401 402 403 404 405 406 407
8 408 409 410 411 412 413 414 415
8 416 417 418 419 420 421 422 423
8 424 425 426 427 428 429 430 431
8 432 433 434 435 436 437 438 439
8 440 441 442 443 444 445 446 447
8 448 449 450 451 452 453 454 455
8 456 457 458 459 460 461 462 463
8 464 465 466 467 468 469 470 471
8 472 473 474 475 476 477 478 479
8 480 481 482 483 484 485 486 487
8 488 489 490 491 492 493 494 495
8 496 497 498 499 500 501 502 503
8 504 505 506 507 508 509 510 511

CELL_TYPES 64
23
23
23
23
23
23
23
23
23
23
23
23
23
23
23
23
23
23
23
23
23
23
23
23
23
23
23
23
23
23
23
23
23
23
23
23
23
23
23
23
23
23
23
23
23
23
23
23
23
23
23
23
23
23
23
23
23
23
23
23
23
23
23
23

CELL_DATA 64
FIELD FieldData 2
material 1 64 int
1
1
1
1
1
1
1
1
1
1
1
1
1
1
1
1
1
1
1
1
1
1
1
1
1
1
1
1
1
1
1
1
1
1
1
1
1
1
1
1
1
1
1
1
1
1
1
1
1
1
1
1
1
1
1
1
1
1
1
1
1
1
1
1
elindex 1 64 int
33
34
35
36
37
38
39
40
41
42
43
44
45
46
47
48
49
50
51
52
53
54
55
56
57
58
59
60
61
62
63
64
65
66
67
68
69
70
71
72
73
74
75
76
77
78
79
80
81
82
83
84
85
86
87
88
89
90
91
92
93
94
95
96
POINT_DATA 512
SCALARS Sol float
LOOKUP_TABLE default
-0.976103 
-1.55339 
-2.33094 
-1.46424 
-1.26475 
-1.94217 
-1.89759 
-1.22017 
-1.55339 
-1.34978 
-2.02482 
-2.33094 
-1.45158 
-1.6873 
-2.17788 
-1.94217 
-2.33094 
-2.02482 
-1.60633 
-1.84542 
-2.17788 
-1.81557 
-1.72587 
-2.08818 
-1.46424 
-2.33094 
-1.84542 
-1.15768 
-1.89759 
-2.08818 
-1.50155 
-1.31096 
-1.34978 
-0.650855 
-0.975434 
-2.02482 
-1.00032 
-0.813145 
-1.50013 
-1.6873 
-0.650855 
-3.55278e-12 
-5.31004e-12 
-0.975434 
-0.325428 
-4.43141e-12 
-0.487717 
-0.813145 
-0.975434 
-5.31004e-12 
-4.27678e-12 
-0.777263 
-0.487717 
-4.79341e-12 
-0.388631 
-0.876348 
-2.02482 
-0.975434 
-0.777263 
-1.60633 
-1.50013 
-0.876348 
-1.19179 
-1.81557 
-1.60633 
-0.777263 
-0.282721 
-0.567909 
-1.19179 
-0.529992 
-0.425315 
-1.08712 
-0.777263 
-4.27678e-12 
-1.73763e-12 
-0.282721 
-0.388631 
-3.00721e-12 
-0.141361 
-0.529992 
-0.282721 
-1.73763e-12 
-1.00678e-13 
-1.23561e-13 
-0.141361 
-9.19156e-13 
-1.1212e-13 
-0.141361 
-0.567909 
-0.282721 
-1.23561e-13 
2.4575e-13 
-0.425315 
-0.141361 
6.10946e-14 
-0.283954 
-1.15768 
-1.84542 
-0.645803 
-0.402172 
-1.50155 
-1.24561 
-0.523987 
-0.779925 
-1.84542 
-1.60633 
-0.567909 
-0.645803 
-1.72587 
-1.08712 
-0.606856 
-1.24561 
-0.645803 
-0.567909 
2.4575e-13 
4.34843e-13 
-0.606856 
-0.283954 
3.40296e-13 
-0.322901 
-0.402172 
-0.645803 
4.34843e-13 
3.60847e-13 
-0.523987 
-0.322901 
3.97845e-13 
-0.201086 
-3.55278e-12 
-0.650855 
-0.0127702 
-1.30373e-13 
-0.325428 
-0.331813 
-0.00638509 
-1.84158e-12 
-0.650855 
-1.34978 
-0.0189379 
-0.0127702 
-1.00032 
-0.684357 
-0.0158541 
-0.331813 
-0.0127702 
-0.0189379 
0.993572 
0.472696 
-0.0158541 
0.487317 
0.733134 
0.229963 
-1.30373e-13 
-0.0127702 
0.472696 
2.46998e-12 
-0.00638509 
0.229963 
0.236348 
1.1698e-12 
-1.34978 
-1.55339 
-0.0182214 
-0.0189379 
-1.45158 
-0.785805 
-0.0185797 
-0.684357 
-1.55339 
-0.976103 
-0.0112617 
-0.0182214 
-1.26475 
-0.493682 
-0.0147415 
-0.785805 
-0.0182214 
-0.0112617 
0.722978 
1.14973 
-0.0147415 
0.355858 
0.936355 
0.565755 
-0.0189379 
-0.0182214 
1.14973 
0.993572 
-0.0185797 
0.565755 
1.07165 
0.487317 
0.993572 
1.14973 
1.10012 
0.951648 
1.07165 
1.12493 
1.02588 
0.97261 
1.14973 
0.722978 
0.691736 
1.10012 
0.936355 
0.707357 
0.895928 
1.12493 
1.10012 
0.691736 
6.43223e-12 
1.02265e-11 
0.895928 
0.345868 
8.32937e-12 
0.55006 
0.951648 
1.10012 
1.02265e-11 
8.84373e-12 
1.02588 
0.55006 
9.53512e-12 
0.475824 
2.46998e-12 
0.472696 
0.45389 
2.39365e-12 
0.236348 
0.463293 
0.226945 
2.43181e-12 
0.472696 
0.993572 
0.951648 
0.45389 
0.733134 
0.97261 
0.702769 
0.463293 
0.45389 
0.951648 
8.84373e-12 
4.21271e-12 
0.702769 
0.475824 
6.52822e-12 
0.226945 
2.39365e-12 
0.45389 
4.21271e-12 
-4.34898e-15 
0.226945 
0.226945 
2.10418e-12 
1.19465e-12 
1.58566e-11 
1.33223 
2.00366 
2.38537e-11 
0.666117 
1.66795 
1.00183 
1.98551e-11 
1.33223 
1.23715 
1.86064 
2.00366 
1.28469 
1.54889 
1.93215 
1.66795 
2.00366 
1.86064 
1.46714 
1.57667 
1.93215 
1.66389 
1.52191 
1.79016 
2.38537e-11 
2.00366 
1.57667 
1.87534e-11 
1.00183 
1.79016 
0.788335 
2.13035e-11 
1.23715 
0.182087 
0.275396 
1.86064 
0.70962 
0.228741 
1.06802 
1.54889 
0.182087 
-0.976103 
-1.46424 
0.275396 
-0.397008 
-1.22017 
-0.594422 
0.228741 
0.275396 
-1.46424 
-1.15768 
0.217651 
-0.594422 
-1.31096 
-0.470014 
0.246524 
1.86064 
0.275396 
0.217651 
1.46714 
1.06802 
0.246524 
0.842396 
1.66389 
1.46714 
0.217651 
0.0760755 
0.503442 
0.842396 
0.146863 
0.289759 
0.985292 
0.217651 
-1.15768 
-0.402172 
0.0760755 
-0.470014 
-0.779925 
-0.163048 
0.146863 
0.0760755 
-0.402172 
3.60847e-13 
-3.38808e-14 
-0.163048 
-0.201086 
1.63483e-13 
0.0380377 
0.503442 
0.0760755 
-3.38808e-14 
-5.33661e-13 
0.289759 
0.0380377 
-2.83771e-13 
0.251721 
1.87534e-11 
1.57667 
0.530962 
5.98716e-12 
0.788335 
1.05382 
0.265481 
1.23703e-11 
1.57667 
1.46714 
0.503442 
0.530962 
1.52191 
0.985292 
0.517202 
1.05382 
0.530962 
0.503442 
-5.33661e-13 
-1.01369e-12 
0.517202 
0.251721 
-7.73674e-13 
0.265481 
5.98716e-12 
0.530962 
-1.01369e-12 
-1.53395e-14 
0.265481 
0.265481 
-5.14513e-13 
2.98591e-12 
-6.43761e-15 
-8.95568e-12 
-0.961948 
-1.15333e-11 
-4.48106e-12 
-0.480974 
-0.480974 
-5.76986e-12 
-8.95568e-12 
-8.28508e-12 
-0.890914 
-0.961948 
-8.62038e-12 
-0.445457 
-0.926431 
-0.480974 
-0.961948 
-0.890914 
-0.934774 
-1.00985 
-0.926431 
-0.912844 
-0.972312 
-0.985899 
-1.15333e-11 
-0.961948 
-1.00985 
-1.2131e-11 
-0.480974 
-0.985899 
-0.504925 
-1.18321e-11 
-8.28508e-12 
-1.24739e-12 
-0.134266 
-0.890914 
-4.76624e-12 
-0.0671332 
-0.51259 
-0.445457 
-1.24739e-12 
6.43223e-12 
0.691736 
-0.134266 
2.59242e-12 
0.345868 
0.278735 
-0.0671332 
-0.134266 
0.691736 
0.722978 
-0.141722 
0.278735 
0.707357 
0.290628 
-0.137994 
-0.890914 
-0.134266 
-0.141722 
-0.934774 
-0.51259 
-0.137994 
-0.538248 
-0.912844 
-0.934774 
-0.141722 
-0.00212775 
0.00318506 
-0.538248 
-0.0719251 
0.000528656 
-0.465794 
-0.141722 
0.722978 
-0.0112617 
-0.00212775 
0.290628 
0.355858 
-0.00669471 
-0.0719251 
-0.00212775 
-0.0112617 
-0.976103 
0.182087 
-0.00669471 
-0.493682 
-0.397008 
0.0899794 
0.00318506 
-0.00212775 
0.182087 
1.23715 
0.000528656 
0.0899794 
0.70962 
0.620169 
-1.2131e-11 
-1.00985 
0.00177114 
-3.79624e-14 
-0.504925 
-0.504039 
0.00088557 
-6.08446e-12 
-1.00985 
-0.934774 
0.00318506 
0.00177114 
-0.972312 
-0.465794 
0.0024781 
-0.504039 
0.00177114 
0.00318506 
1.23715 
1.33223 
0.0024781 
0.620169 
1.28469 
0.667003 
-3.79624e-14 
0.00177114 
1.33223 
1.58566e-11 
0.00088557 
0.667003 
0.666117 
7.90931e-12 
SCALARS Force float
LOOKUP_TABLE default
-69.3736 
-100.376 
-158.743 
-109.161 
-92.3213 
-142.208 
-145.627 
-97.8097 
-100.376 
-75.4528 
-120.381 
-158.743 
-93.9521 
-107.807 
-149.086 
-142.208 
-158.743 
-120.381 
-80.0692 
-108.296 
-149.086 
-110.536 
-100.728 
-146.643 
-109.161 
-158.743 
-108.296 
-75.5487 
-145.627 
-146.643 
-100.086 
-101.192 
-75.4528 
-18.5426 
-31.4196 
-120.381 
-48.7477 
-28.0764 
-78.6906 
-107.807 
-18.5426 
33.3244 
49.8054 
-31.4196 
10.288 
44.7154 
13.7415 
-28.0764 
-31.4196 
49.8054 
39.6313 
-17.3462 
13.7415 
47.8504 
14.3101 
-27.6932 
-120.381 
-31.4196 
-17.3462 
-80.0692 
-78.6906 
-27.6932 
-50.5668 
-110.536 
-80.0692 
-17.3462 
15.2278 
15.286 
-50.5668 
-2.11525 
15.6016 
-35.0191 
-17.3462 
39.6313 
14.2536 
15.2278 
14.3101 
27.3515 
14.6128 
-2.11525 
15.2278 
14.2536 
-0 
42.6971 
14.6128 
4.01225 
18.8283 
31.308 
15.286 
15.2278 
42.6971 
87.6824 
15.6016 
31.308 
67.2053 
59.794 
-75.5487 
-108.296 
11.5809 
4.55349 
-100.086 
-51.5395 
8.28793 
-37.5735 
-108.296 
-80.0692 
15.286 
11.5809 
-100.728 
-35.0191 
13.9745 
-51.5395 
11.5809 
15.286 
87.6824 
100.505 
13.9745 
59.794 
99.8526 
66.866 
4.55349 
11.5809 
100.505 
63.1015 
8.28793 
66.866 
88.0825 
41.2165 
33.3244 
-18.5426 
10.182 
0.866134 
10.288 
-4.84923 
4.96991 
17.7145 
-18.5426 
-75.4528 
19.9383 
10.182 
-48.7477 
-29.8255 
15.5181 
-4.84923 
10.182 
19.9383 
92.5251 
32.0195 
15.5181 
63.7656 
64.4103 
23.4301 
0.866134 
10.182 
32.0195 
-23.8694 
4.96991 
23.4301 
0.893917 
-13.954 
-75.4528 
-100.376 
22.4931 
19.9383 
-93.9521 
-41.57 
22.4971 
-29.8255 
-100.376 
-69.3736 
13.957 
22.4931 
-92.3213 
-29.4768 
19.5998 
-41.57 
22.4931 
13.957 
77.3832 
116.004 
19.5998 
52.2012 
104.783 
78.9062 
19.9383 
22.4931 
116.004 
92.5251 
22.4971 
78.9062 
111.117 
63.7656 
92.5251 
116.004 
104.862 
83.1253 
111.117 
125.631 
100.2 
99.7802 
116.004 
77.3832 
70.2197 
104.862 
104.783 
84.027 
94.9033 
125.631 
104.862 
70.2197 
-5.79759 
-9.23413 
94.9033 
38.1933 
-8.09279 
56.8707 
83.1253 
104.862 
-9.23413 
-8.05602 
100.2 
56.8707 
-9.17419 
44.8714 
-23.8694 
32.0195 
27.9239 
-22.9876 
0.893917 
33.8348 
-0.423558 
-27.0146 
32.0195 
92.5251 
83.1253 
27.9239 
64.4103 
99.7802 
57.4461 
33.8348 
27.9239 
83.1253 
-8.05602 
-3.92289 
57.4461 
44.8714 
-6.17464 
14.7252 
-22.9876 
27.9239 
-3.92289 
0 
-0.423558 
14.7252 
-1.72989 
-13.0465 
59.8472 
133.832 
207.374 
89.4455 
112.082 
185.918 
172.143 
80.3043 
133.832 
100.062 
156.398 
207.374 
127.832 
140.17 
199.076 
185.918 
207.374 
156.398 
110.304 
149.825 
199.076 
145.652 
141.841 
194.288 
89.4455 
207.374 
149.825 
71.1738 
172.143 
194.288 
127.417 
85.9345 
100.062 
11.2839 
17.8536 
156.398 
58.3961 
15.9937 
91.5793 
140.17 
11.2839 
-69.3736 
-109.161 
17.8536 
-33.4221 
-97.8097 
-52.4101 
15.9937 
17.8536 
-109.161 
-75.5487 
12.1636 
-52.4101 
-101.192 
-36.6262 
16.4875 
156.398 
17.8536 
12.1636 
110.304 
91.5793 
16.4875 
63.9856 
145.652 
110.304 
12.1636 
-1.35405 
0.00454719 
63.9856 
5.76439 
-1.90576 
57.9132 
12.1636 
-75.5487 
4.55349 
-1.35405 
-36.6262 
-37.5735 
1.06618 
5.76439 
-1.35405 
4.55349 
63.1015 
-11.3946 
1.06618 
41.2165 
28.3215 
-7.59239 
0.00454719 
-1.35405 
-11.3946 
-78.8977 
-1.90576 
-7.59239 
-49.5633 
-49.9304 
71.1738 
149.825 
11.2979 
25.598 
127.417 
83.8478 
19.0124 
49.1206 
149.825 
110.304 
0.00454719 
11.2979 
141.841 
57.9132 
4.5534 
83.8478 
11.2979 
0.00454719 
-78.8977 
-84.707 
4.5534 
-49.9304 
-92.4104 
-50.4279 
25.598 
11.2979 
-84.707 
-0 
19.0124 
-50.4279 
-53.3326 
7.20559 
0 
7.78265 
-122.342 
-41.2835 
4.90005 
-67.2066 
-96.2182 
-23.4302 
7.78265 
7.24891 
-96.9873 
-122.342 
8.49042 
-52.9697 
-120.933 
-67.2066 
-122.342 
-96.9873 
-106.297 
-133.035 
-120.933 
-115.861 
-132.118 
-145.795 
-41.2835 
-122.342 
-133.035 
-42.8671 
-96.2182 
-145.795 
-103.687 
-48.5155 
7.24891 
1.0469 
-11.8223 
-96.9873 
4.55375 
-6.41003 
-57.849 
-52.9697 
1.0469 
-5.79759 
70.2197 
-11.8223 
-2.60211 
38.1933 
33.0929 
-6.41003 
-11.8223 
70.2197 
77.3832 
-13.083 
33.0929 
84.027 
36.3686 
-14.1653 
-96.9873 
-11.8223 
-13.083 
-106.297 
-57.849 
-14.1653 
-63.579 
-115.861 
-106.297 
-13.083 
-2.55261 
-17.1047 
-63.579 
-8.90565 
-10.8611 
-70.847 
-13.083 
77.3832 
13.957 
-2.55261 
36.3686 
52.2012 
6.20486 
-8.90565 
-2.55261 
13.957 
-69.3736 
11.2839 
6.20486 
-29.4768 
-33.4221 
4.66188 
-17.1047 
-2.55261 
11.2839 
100.062 
-10.8611 
4.66188 
58.3961 
43.9373 
-42.8671 
-133.035 
-17.6778 
1.55549 
-103.687 
-87.1192 
-10.4071 
-25.0601 
-133.035 
-106.297 
-17.1047 
-17.6778 
-132.118 
-70.847 
-19.7578 
-87.1192 
-17.6778 
-17.1047 
100.062 
133.832 
-19.7578 
43.9373 
127.832 
61.2075 
1.55549 
-17.6778 
133.832 
59.8472 
-10.4071 
61.2075 
112.082 
31.8135 
SCALARS SolExact float
LOOKUP_TABLE default
-0.944112 
-1.50374 
-2.24743 
-1.41104 
-1.31787 
-2.01774 
-1.96965 
-1.26683 
-1.50374 
-1.31189 
-1.9607 
-2.24743 
-1.49397 
-1.76032 
-2.23284 
-2.01774 
-2.24743 
-1.9607 
-1.56017 
-1.78833 
-2.23284 
-1.88374 
-1.77672 
-2.15921 
-1.41104 
-2.24743 
-1.78833 
-1.12279 
-1.96965 
-2.15921 
-1.56729 
-1.35565 
-1.31189 
-0.638825 
-0.954766 
-1.9607 
-1.00551 
-0.857189 
-1.5028 
-1.76032 
-0.638825 
-0 
-0 
-0.954766 
-0.281705 
-0 
-0.421026 
-0.857189 
-0.954766 
-0 
-0 
-0.759729 
-0.421026 
-0 
-0.33502 
-0.917288 
-1.9607 
-0.954766 
-0.759729 
-1.56017 
-1.5028 
-0.917288 
-1.19581 
-1.88374 
-1.56017 
-0.759729 
-0.27324 
-0.561123 
-1.19581 
-0.524326 
-0.43008 
-1.07675 
-0.759729 
-0 
-0 
-0.27324 
-0.33502 
-0 
-0.120491 
-0.524326 
-0.27324 
-0 
-0 
-0 
-0.120491 
-0 
-0 
-0.0769144 
-0.561123 
-0.27324 
-0 
-0 
-0.43008 
-0.0769144 
-0 
-0.157951 
-1.12279 
-1.78833 
-0.643182 
-0.403818 
-1.56729 
-1.23422 
-0.563684 
-0.774895 
-1.78833 
-1.56017 
-0.561123 
-0.643182 
-1.77672 
-1.07675 
-0.639007 
-1.23422 
-0.643182 
-0.561123 
-0 
-0 
-0.639007 
-0.157951 
-0 
-0.181049 
-0.403818 
-0.643182 
-0 
-0 
-0.563684 
-0.181049 
-0 
-0.113671 
-0 
-0.638825 
-0.0166037 
-0 
-0.281705 
-0.339586 
-0.00732179 
-0 
-0.638825 
-1.31189 
-0.0340973 
-0.0166037 
-1.00551 
-0.69737 
-0.0261343 
-0.339586 
-0.0166037 
-0.0340973 
0.939672 
0.457575 
-0.0261343 
0.549331 
0.720224 
0.267498 
-0 
-0.0166037 
0.457575 
0 
-0.00732179 
0.267498 
0.201778 
0 
-1.31189 
-1.50374 
-0.0390836 
-0.0340973 
-1.49397 
-0.799353 
-0.0388299 
-0.69737 
-1.50374 
-0.944112 
-0.0245384 
-0.0390836 
-1.31787 
-0.501869 
-0.0342529 
-0.799353 
-0.0390836 
-0.0245384 
0.676244 
1.07709 
-0.0342529 
0.395331 
0.94396 
0.629665 
-0.0340973 
-0.0390836 
1.07709 
0.939672 
-0.0388299 
0.629665 
1.0701 
0.549331 
0.939672 
1.07709 
1.0373 
0.904958 
1.0701 
1.21901 
1.03057 
1.06349 
1.07709 
0.676244 
0.651262 
1.0373 
0.94396 
0.765349 
0.909088 
1.21901 
1.0373 
0.651262 
0 
0 
0.909088 
0.369621 
0 
0.588714 
0.904958 
1.0373 
0 
0 
1.03057 
0.588714 
0 
0.513605 
0 
0.457575 
0.440671 
0 
0.201778 
0.517867 
0.194324 
0 
0.457575 
0.939672 
0.904958 
0.440671 
0.720224 
1.06349 
0.693617 
0.517867 
0.440671 
0.904958 
0 
0 
0.693617 
0.513605 
0 
0.250101 
0 
0.440671 
0 
0 
0.194324 
0.250101 
0 
0 
0 
1.26737 
1.89417 
0 
0.797951 
1.70058 
1.19259 
0 
1.26737 
1.18045 
1.76426 
1.89417 
1.38263 
1.58396 
2.06642 
1.70058 
1.89417 
1.76426 
1.40386 
1.50723 
2.06642 
1.69501 
1.6443 
1.81981 
0 
1.89417 
1.50723 
0 
1.19259 
1.81981 
0.948971 
0 
1.18045 
0.170484 
0.254799 
1.76426 
0.741557 
0.228759 
1.1083 
1.58396 
0.170484 
-0.944112 
-1.41104 
0.254799 
-0.423741 
-1.26683 
-0.633309 
0.228759 
0.254799 
-1.41104 
-1.12279 
0.202749 
-0.633309 
-1.35565 
-0.503938 
0.244797 
1.76426 
0.254799 
0.202749 
1.40386 
1.1083 
0.244797 
0.881903 
1.69501 
1.40386 
0.202749 
0.0729197 
0.504906 
0.881903 
0.139927 
0.317181 
0.968875 
0.202749 
-1.12279 
-0.403818 
0.0729197 
-0.503938 
-0.774895 
-0.181244 
0.139927 
0.0729197 
-0.403818 
-0 
0 
-0.181244 
-0.113671 
-0 
0.0205262 
0.504906 
0.0729197 
0 
0 
0.317181 
0.0205262 
0 
0.142126 
0 
1.50723 
0.542082 
0 
0.948971 
1.04021 
0.341302 
0 
1.50723 
1.40386 
0.504906 
0.542082 
1.6443 
0.968875 
0.591381 
1.04021 
0.542082 
0.504906 
0 
0 
0.591381 
0.142126 
0 
0.152591 
0 
0.542082 
0 
0 
0.341302 
0.152591 
0 
0 
-0 
-0 
-0.87425 
-0 
-0 
-0.496176 
-0.550438 
-0 
-0 
-0 
-0.814293 
-0.87425 
-0 
-0.462148 
-0.953756 
-0.496176 
-0.87425 
-0.814293 
-0.845529 
-0.907786 
-0.953756 
-0.95694 
-0.990341 
-1.0274 
-0 
-0.87425 
-0.907786 
-0 
-0.550438 
-1.0274 
-0.571553 
-0 
-0 
-0 
-0.117602 
-0.814293 
-0 
-0.0667445 
-0.511537 
-0.462148 
-0 
0 
0.651262 
-0.117602 
0 
0.369621 
0.292303 
-0.0667445 
-0.117602 
0.651262 
0.676244 
-0.122113 
0.292303 
0.765349 
0.303515 
-0.138203 
-0.814293 
-0.117602 
-0.122113 
-0.845529 
-0.511537 
-0.138203 
-0.531159 
-0.95694 
-0.845529 
-0.122113 
0.00443104 
0.0306812 
-0.531159 
-0.0713873 
0.0192738 
-0.494295 
-0.122113 
0.676244 
-0.0245384 
0.00443104 
0.303515 
0.395331 
-0.0110135 
-0.0713873 
0.00443104 
-0.0245384 
-0.944112 
0.170484 
-0.0110135 
-0.501869 
-0.423741 
0.0906254 
0.0306812 
0.00443104 
0.170484 
1.18045 
0.0192738 
0.0906254 
0.741557 
0.627503 
-0 
-0.907786 
0.0329402 
0 
-0.571553 
-0.53069 
0.0207396 
-0 
-0.907786 
-0.845529 
0.0306812 
0.0329402 
-0.990341 
-0.494295 
0.0359359 
-0.53069 
0.0329402 
0.0306812 
1.18045 
1.26737 
0.0359359 
0.627503 
1.38263 
0.673706 
0 
0.0329402 
1.26737 
0 
0.0207396 
0.673706 
0.797951 
0 
VECTORS DSol float
3.90509 -4.61828 0 
6.22045 -4.61828 0 
6.22045 -6.93364 0 
3.90509 -6.93364 0 
5.06277 -4.61828 0 
6.22045 -5.77596 0 
5.06277 -6.93364 0 
3.90509 -5.77596 0 
6.22045 1.62891 0 
5.40034 1.62891 0 
5.40034 2.44902 0 
6.22045 2.44902 0 
5.81039 1.62891 0 
5.40034 2.03896 0 
5.81039 2.44902 0 
6.22045 2.03896 0 
-3.88419 2.44902 0 
-3.34792 2.44902 0 
-3.34792 1.91275 0 
-3.88419 1.91275 0 
-3.61606 2.44902 0 
-3.34792 2.18088 0 
-3.61606 1.91275 0 
-3.88419 2.18088 0 
-2.45249 -6.93364 0 
-3.88419 -6.93364 0 
-3.88419 -5.50193 0 
-2.45249 -5.50193 0 
-3.16834 -6.93364 0 
-3.88419 -6.21779 0 
-3.16834 -5.50193 0 
-2.45249 -6.21779 0 
5.40034 5.59136 0 
2.59663 5.59136 0 
2.59663 8.39507 0 
5.40034 8.39507 0 
3.99848 5.59136 0 
2.59663 6.99321 0 
3.99848 8.39507 0 
5.40034 6.99321 0 
2.59663 5.20684 0 
1.40581e-11 5.20684 0 
1.40581e-11 7.80347 0 
2.59663 7.80347 0 
1.29832 5.20684 0 
1.40581e-11 6.50516 0 
1.29832 7.80347 0 
2.59663 6.50516 0 
-1.58537 7.80347 0 
-8.26605e-12 7.80347 0 
-8.26605e-12 6.2181 0 
-1.58537 6.2181 0 
-0.792685 7.80347 0 
-8.26605e-12 7.01079 0 
-0.792685 6.2181 0 
-1.58537 7.01079 0 
-3.34792 8.39507 0 
-1.58537 8.39507 0 
-1.58537 6.63251 0 
-3.34792 6.63251 0 
-2.46665 8.39507 0 
-1.58537 7.51379 0 
-2.46665 6.63251 0 
-3.34792 7.51379 0 
-8.30735 6.63251 0 
-3.95633 6.63251 0 
-3.95633 2.2815 0 
-8.30735 2.2815 0 
-6.13184 6.63251 0 
-3.95633 4.457 0 
-6.13184 2.2815 0 
-8.30735 4.457 0 
-3.95633 6.2181 0 
-2.03132e-11 6.2181 0 
-2.03132e-11 2.26177 0 
-3.95633 2.26177 0 
-1.97816 6.2181 0 
-2.03132e-11 4.23994 0 
-1.97816 2.26177 0 
-3.95633 4.23994 0 
-2.26177 2.26177 0 
-1.30956e-11 2.26177 0 
-1.30956e-11 1.83061e-13 0 
-2.26177 1.83061e-13 0 
-1.13089 2.26177 0 
-1.30956e-11 1.13089 0 
-1.13089 1.83061e-13 0 
-2.26177 1.13089 0 
-4.54327 2.2815 0 
-2.26177 2.2815 0 
-2.26177 -2.95449e-12 0 
-4.54327 -2.95449e-12 0 
-3.40252 2.2815 0 
-2.26177 1.14075 0 
-3.40252 -2.95449e-12 0 
-4.54327 1.14075 0 
-6.04405 -5.50193 0 
-9.59694 -5.50193 0 
-9.59694 -1.94905 0 
-6.04405 -1.94905 0 
-7.8205 -5.50193 0 
-9.59694 -3.72549 0 
-7.8205 -1.94905 0 
-6.04405 -3.72549 0 
-9.59694 1.91275 0 
-8.30735 1.91275 0 
-8.30735 0.623152 0 
-9.59694 0.623152 0 
-8.95214 1.91275 0 
-8.30735 1.26795 0 
-8.95214 0.623152 0 
-9.59694 1.26795 0 
-5.16642 0.623152 0 
-4.54327 0.623152 0 
-4.54327 -1.51274e-12 0 
-5.16642 -1.51274e-12 0 
-4.85484 0.623152 0 
-4.54327 0.311576 0 
-4.85484 -1.51274e-12 0 
-5.16642 0.311576 0 
-3.21737 -1.94905 0 
-5.16642 -1.94905 0 
-5.16642 5.91965e-13 0 
-3.21737 5.91965e-13 0 
-4.1919 -1.94905 0 
-5.16642 -0.974523 0 
-4.1919 5.91965e-13 0 
-3.21737 -0.974523 0 
2.73793e-11 5.20684 0 
5.10468 5.20684 0 
5.10468 0.102161 0 
2.73793e-11 0.102161 0 
2.55234 5.20684 0 
5.10468 2.6545 0 
2.55234 0.102161 0 
2.73793e-11 2.6545 0 
5.10468 5.59136 0 
10.6467 5.59136 0 
10.6467 0.0493419 0 
5.10468 0.0493419 0 
7.87569 5.59136 0 
10.6467 2.82035 0 
7.87569 0.0493419 0 
5.10468 2.82035 0 
3.88373 0.0493419 0 
8.10008 0.0493419 0 
8.10008 -4.16701 0 
3.88373 -4.16701 0 
5.9919 0.0493419 0 
8.10008 -2.05883 0 
5.9919 -4.16701 0 
3.88373 -2.05883 0 
2.08028e-11 0.102161 0 
3.88373 0.102161 0 
3.88373 -3.78157 0 
2.08028e-11 -3.78157 0 
1.94186 0.102161 0 
3.88373 -1.8397 0 
1.94186 -3.78157 0 
2.08028e-11 -1.8397 0 
10.6467 1.62891 0 
12.2813 1.62891 0 
12.2813 -0.00573209 0 
10.6467 -0.00573209 0 
11.464 1.62891 0 
12.2813 0.811587 0 
11.464 -0.00573209 0 
10.6467 0.811587 0 
12.2813 -4.61828 0 
7.71873 -4.61828 0 
7.71873 -0.0556779 0 
12.2813 -0.0556779 0 
10 -4.61828 0 
7.71873 -2.33698 0 
10 -0.0556779 0 
12.2813 -2.33698 0 
9.34363 -0.0556779 0 
5.87392 -0.0556779 0 
5.87392 3.41403 0 
9.34363 3.41403 0 
7.60877 -0.0556779 0 
5.87392 1.67918 0 
7.60877 3.41403 0 
9.34363 1.67918 0 
8.10008 -0.00573209 0 
9.34363 -0.00573209 0 
9.34363 -1.24928 0 
8.10008 -1.24928 0 
8.72185 -0.00573209 0 
9.34363 -0.627507 0 
8.72185 -1.24928 0 
8.10008 -0.627507 0 
-0.335388 -1.24928 0 
-0.396896 -1.24928 0 
-0.396896 -1.18777 0 
-0.335388 -1.18777 0 
-0.366142 -1.24928 0 
-0.396896 -1.21853 0 
-0.366142 -1.18777 0 
-0.335388 -1.21853 0 
-0.396896 3.41403 0 
-0.24994 3.41403 0 
-0.24994 3.26707 0 
-0.396896 3.26707 0 
-0.323418 3.41403 0 
-0.24994 3.34055 0 
-0.323418 3.26707 0 
-0.396896 3.34055 0 
-8.80096 3.26707 0 
-5.53389 3.26707 0 
-5.53389 3.03542e-11 0 
-8.80096 3.03542e-11 0 
-7.16742 3.26707 0 
-5.53389 1.63354 0 
-7.16742 3.03542e-11 0 
-8.80096 1.63354 0 
-7.61319 -1.18777 0 
-8.80096 -1.18777 0 
-8.80096 -1.10622e-11 0 
-7.61319 -1.10622e-11 0 
-8.20707 -1.18777 0 
-8.80096 -0.593887 0 
-8.20707 -1.10622e-11 0 
-7.61319 -0.593887 0 
-6.10616e-13 -3.78157 0 
-0.150444 -3.78157 0 
-0.150444 -3.63112 0 
-6.10616e-13 -3.63112 0 
-0.0752221 -3.78157 0 
-0.150444 -3.70635 0 
-0.0752221 -3.63112 0 
-6.10616e-13 -3.70635 0 
-0.150444 -4.16701 0 