# vtk DataFile Version 3.0
TPZGeoMesh VTK Visualization
ASCII

DATASET UNSTRUCTURED_GRID
POINTS 2048 float
0.5 0.5 0 
0.5 0.5625 0 
0.4375 0.5625 0 
0.4375 0.5 0 
0.5 0.53125 0 
0.46875 0.5625 0 
0.4375 0.53125 0 
0.46875 0.5 0 
0.5 0.5625 0 
0.5 0.625 0 
0.4375 0.625 0 
0.4375 0.5625 0 
0.5 0.59375 0 
0.46875 0.625 0 
0.4375 0.59375 0 
0.46875 0.5625 0 
0.4375 0.5625 0 
0.4375 0.625 0 
0.375 0.625 0 
0.375 0.5625 0 
0.4375 0.59375 0 
0.40625 0.625 0 
0.375 0.59375 0 
0.40625 0.5625 0 
0.4375 0.5 0 
0.4375 0.5625 0 
0.375 0.5625 0 
0.375 0.5 0 
0.4375 0.53125 0 
0.40625 0.5625 0 
0.375 0.53125 0 
0.40625 0.5 0 
0.5 0.625 0 
0.5 0.6875 0 
0.4375 0.6875 0 
0.4375 0.625 0 
0.5 0.65625 0 
0.46875 0.6875 0 
0.4375 0.65625 0 
0.46875 0.625 0 
0.5 0.6875 0 
0.5 0.75 0 
0.4375 0.75 0 
0.4375 0.6875 0 
0.5 0.71875 0 
0.46875 0.75 0 
0.4375 0.71875 0 
0.46875 0.6875 0 
0.4375 0.6875 0 
0.4375 0.75 0 
0.375 0.75 0 
0.375 0.6875 0 
0.4375 0.71875 0 
0.40625 0.75 0 
0.375 0.71875 0 
0.40625 0.6875 0 
0.4375 0.625 0 
0.4375 0.6875 0 
0.375 0.6875 0 
0.375 0.625 0 
0.4375 0.65625 0 
0.40625 0.6875 0 
0.375 0.65625 0 
0.40625 0.625 0 
0.375 0.625 0 
0.375 0.6875 0 
0.3125 0.6875 0 
0.3125 0.625 0 
0.375 0.65625 0 
0.34375 0.6875 0 
0.3125 0.65625 0 
0.34375 0.625 0 
0.375 0.6875 0 
0.375 0.75 0 
0.3125 0.75 0 
0.3125 0.6875 0 
0.375 0.71875 0 
0.34375 0.75 0 
0.3125 0.71875 0 
0.34375 0.6875 0 
0.3125 0.6875 0 
0.3125 0.75 0 
0.25 0.75 0 
0.25 0.6875 0 
0.3125 0.71875 0 
0.28125 0.75 0 
0.25 0.71875 0 
0.28125 0.6875 0 
0.3125 0.625 0 
0.3125 0.6875 0 
0.25 0.6875 0 
0.25 0.625 0 
0.3125 0.65625 0 
0.28125 0.6875 0 
0.25 0.65625 0 
0.28125 0.625 0 
0.375 0.5 0 
0.375 0.5625 0 
0.3125 0.5625 0 
0.3125 0.5 0 
0.375 0.53125 0 
0.34375 0.5625 0 
0.3125 0.53125 0 
0.34375 0.5 0 
0.375 0.5625 0 
0.375 0.625 0 
0.3125 0.625 0 
0.3125 0.5625 0 
0.375 0.59375 0 
0.34375 0.625 0 
0.3125 0.59375 0 
0.34375 0.5625 0 
0.3125 0.5625 0 
0.3125 0.625 0 
0.25 0.625 0 
0.25 0.5625 0 
0.3125 0.59375 0 
0.28125 0.625 0 
0.25 0.59375 0 
0.28125 0.5625 0 
0.3125 0.5 0 
0.3125 0.5625 0 
0.25 0.5625 0 
0.25 0.5 0 
0.3125 0.53125 0 
0.28125 0.5625 0 
0.25 0.53125 0 
0.28125 0.5 0 
0.5 0.75 0 
0.5 0.8125 0 
0.4375 0.8125 0 
0.4375 0.75 0 
0.5 0.78125 0 
0.46875 0.8125 0 
0.4375 0.78125 0 
0.46875 0.75 0 
0.5 0.8125 0 
0.5 0.875 0 
0.4375 0.875 0 
0.4375 0.8125 0 
0.5 0.84375 0 
0.46875 0.875 0 
0.4375 0.84375 0 
0.46875 0.8125 0 
0.4375 0.8125 0 
0.4375 0.875 0 
0.375 0.875 0 
0.375 0.8125 0 
0.4375 0.84375 0 
0.40625 0.875 0 
0.375 0.84375 0 
0.40625 0.8125 0 
0.4375 0.75 0 
0.4375 0.8125 0 
0.375 0.8125 0 
0.375 0.75 0 
0.4375 0.78125 0 
0.40625 0.8125 0 
0.375 0.78125 0 
0.40625 0.75 0 
0.5 0.875 0 
0.5 0.9375 0 
0.4375 0.9375 0 
0.4375 0.875 0 
0.5 0.90625 0 
0.46875 0.9375 0 
0.4375 0.90625 0 
0.46875 0.875 0 
0.5 0.9375 0 
0.5 1 0 
0.4375 1 0 
0.4375 0.9375 0 
0.5 0.96875 0 
0.46875 1 0 
0.4375 0.96875 0 
0.46875 0.9375 0 
0.4375 0.9375 0 
0.4375 1 0 
0.375 1 0 
0.375 0.9375 0 
0.4375 0.96875 0 
0.40625 1 0 
0.375 0.96875 0 
0.40625 0.9375 0 
0.4375 0.875 0 
0.4375 0.9375 0 
0.375 0.9375 0 
0.375 0.875 0 
0.4375 0.90625 0 
0.40625 0.9375 0 
0.375 0.90625 0 
0.40625 0.875 0 
0.375 0.875 0 
0.375 0.9375 0 
0.3125 0.9375 0 
0.3125 0.875 0 
0.375 0.90625 0 
0.34375 0.9375 0 
0.3125 0.90625 0 
0.34375 0.875 0 
0.375 0.9375 0 
0.375 1 0 
0.3125 1 0 
0.3125 0.9375 0 
0.375 0.96875 0 
0.34375 1 0 
0.3125 0.96875 0 
0.34375 0.9375 0 
0.3125 0.9375 0 
0.3125 1 0 
0.25 1 0 
0.25 0.9375 0 
0.3125 0.96875 0 
0.28125 1 0 
0.25 0.96875 0 
0.28125 0.9375 0 
0.3125 0.875 0 
0.3125 0.9375 0 
0.25 0.9375 0 
0.25 0.875 0 
0.3125 0.90625 0 
0.28125 0.9375 0 
0.25 0.90625 0 
0.28125 0.875 0 
0.375 0.75 0 
0.375 0.8125 0 
0.3125 0.8125 0 
0.3125 0.75 0 
0.375 0.78125 0 
0.34375 0.8125 0 
0.3125 0.78125 0 
0.34375 0.75 0 
0.375 0.8125 0 
0.375 0.875 0 
0.3125 0.875 0 
0.3125 0.8125 0 
0.375 0.84375 0 
0.34375 0.875 0 
0.3125 0.84375 0 
0.34375 0.8125 0 
0.3125 0.8125 0 
0.3125 0.875 0 
0.25 0.875 0 
0.25 0.8125 0 
0.3125 0.84375 0 
0.28125 0.875 0 
0.25 0.84375 0 
0.28125 0.8125 0 
0.3125 0.75 0 
0.3125 0.8125 0 
0.25 0.8125 0 
0.25 0.75 0 
0.3125 0.78125 0 
0.28125 0.8125 0 
0.25 0.78125 0 
0.28125 0.75 0 
0.25 0.75 0 
0.25 0.8125 0 
0.1875 0.8125 0 
0.1875 0.75 0 
0.25 0.78125 0 
0.21875 0.8125 0 
0.1875 0.78125 0 
0.21875 0.75 0 
0.25 0.8125 0 
0.25 0.875 0 
0.1875 0.875 0 
0.1875 0.8125 0 
0.25 0.84375 0 
0.21875 0.875 0 
0.1875 0.84375 0 
0.21875 0.8125 0 
0.1875 0.8125 0 
0.1875 0.875 0 
0.125 0.875 0 
0.125 0.8125 0 
0.1875 0.84375 0 
0.15625 0.875 0 
0.125 0.84375 0 
0.15625 0.8125 0 
0.1875 0.75 0 
0.1875 0.8125 0 
0.125 0.8125 0 
0.125 0.75 0 
0.1875 0.78125 0 
0.15625 0.8125 0 
0.125 0.78125 0 
0.15625 0.75 0 
0.25 0.875 0 
0.25 0.9375 0 
0.1875 0.9375 0 
0.1875 0.875 0 
0.25 0.90625 0 
0.21875 0.9375 0 
0.1875 0.90625 0 
0.21875 0.875 0 
0.25 0.9375 0 
0.25 1 0 
0.1875 1 0 
0.1875 0.9375 0 
0.25 0.96875 0 
0.21875 1 0 
0.1875 0.96875 0 
0.21875 0.9375 0 
0.1875 0.9375 0 
0.1875 1 0 
0.125 1 0 
0.125 0.9375 0 
0.1875 0.96875 0 
0.15625 1 0 
0.125 0.96875 0 
0.15625 0.9375 0 
0.1875 0.875 0 
0.1875 0.9375 0 
0.125 0.9375 0 
0.125 0.875 0 
0.1875 0.90625 0 
0.15625 0.9375 0 
0.125 0.90625 0 
0.15625 0.875 0 
0.125 0.875 0 
0.125 0.9375 0 
0.0625 0.9375 0 
0.0625 0.875 0 
0.125 0.90625 0 
0.09375 0.9375 0 
0.0625 0.90625 0 
0.09375 0.875 0 
0.125 0.9375 0 
0.125 1 0 
0.0625 1 0 
0.0625 0.9375 0 
0.125 0.96875 0 
0.09375 1 0 
0.0625 0.96875 0 
0.09375 0.9375 0 
0.0625 0.9375 0 
0.0625 1 0 
0 1 0 
0 0.9375 0 
0.0625 0.96875 0 
0.03125 1 0 
0 0.96875 0 
0.03125 0.9375 0 
0.0625 0.875 0 
0.0625 0.9375 0 
0 0.9375 0 
0 0.875 0 
0.0625 0.90625 0 
0.03125 0.9375 0 
0 0.90625 0 
0.03125 0.875 0 
0.125 0.75 0 
0.125 0.8125 0 
0.0625 0.8125 0 
0.0625 0.75 0 
0.125 0.78125 0 
0.09375 0.8125 0 
0.0625 0.78125 0 
0.09375 0.75 0 
0.125 0.8125 0 
0.125 0.875 0 
0.0625 0.875 0 
0.0625 0.8125 0 
0.125 0.84375 0 
0.09375 0.875 0 
0.0625 0.84375 0 
0.09375 0.8125 0 
0.0625 0.8125 0 
0.0625 0.875 0 
0 0.875 0 
0 0.8125 0 
0.0625 0.84375 0 
0.03125 0.875 0 
0 0.84375 0 
0.03125 0.8125 0 
0.0625 0.75 0 
0.0625 0.8125 0 
0 0.8125 0 
0 0.75 0 
0.0625 0.78125 0 
0.03125 0.8125 0 
0 0.78125 0 
0.03125 0.75 0 
0.25 0.5 0 
0.25 0.5625 0 
0.1875 0.5625 0 
0.1875 0.5 0 
0.25 0.53125 0 
0.21875 0.5625 0 
0.1875 0.53125 0 
0.21875 0.5 0 
0.25 0.5625 0 
0.25 0.625 0 
0.1875 0.625 0 
0.1875 0.5625 0 
0.25 0.59375 0 
0.21875 0.625 0 
0.1875 0.59375 0 
0.21875 0.5625 0 
0.1875 0.5625 0 
0.1875 0.625 0 
0.125 0.625 0 
0.125 0.5625 0 
0.1875 0.59375 0 
0.15625 0.625 0 
0.125 0.59375 0 
0.15625 0.5625 0 
0.1875 0.5 0 
0.1875 0.5625 0 
0.125 0.5625 0 
0.125 0.5 0 
0.1875 0.53125 0 
0.15625 0.5625 0 
0.125 0.53125 0 
0.15625 0.5 0 
0.25 0.625 0 
0.25 0.6875 0 
0.1875 0.6875 0 
0.1875 0.625 0 
0.25 0.65625 0 
0.21875 0.6875 0 
0.1875 0.65625 0 
0.21875 0.625 0 
0.25 0.6875 0 
0.25 0.75 0 
0.1875 0.75 0 
0.1875 0.6875 0 
0.25 0.71875 0 
0.21875 0.75 0 
0.1875 0.71875 0 
0.21875 0.6875 0 
0.1875 0.6875 0 
0.1875 0.75 0 
0.125 0.75 0 
0.125 0.6875 0 
0.1875 0.71875 0 
0.15625 0.75 0 
0.125 0.71875 0 
0.15625 0.6875 0 
0.1875 0.625 0 
0.1875 0.6875 0 
0.125 0.6875 0 
0.125 0.625 0 
0.1875 0.65625 0 
0.15625 0.6875 0 
0.125 0.65625 0 
0.15625 0.625 0 
0.125 0.625 0 
0.125 0.6875 0 
0.0625 0.6875 0 
0.0625 0.625 0 
0.125 0.65625 0 
0.09375 0.6875 0 
0.0625 0.65625 0 
0.09375 0.625 0 
0.125 0.6875 0 
0.125 0.75 0 
0.0625 0.75 0 
0.0625 0.6875 0 
0.125 0.71875 0 
0.09375 0.75 0 
0.0625 0.71875 0 
0.09375 0.6875 0 
0.0625 0.6875 0 
0.0625 0.75 0 
0 0.75 0 
0 0.6875 0 
0.0625 0.71875 0 
0.03125 0.75 0 
0 0.71875 0 
0.03125 0.6875 0 
0.0625 0.625 0 
0.0625 0.6875 0 
0 0.6875 0 
0 0.625 0 
0.0625 0.65625 0 
0.03125 0.6875 0 
0 0.65625 0 
0.03125 0.625 0 
0.125 0.5 0 
0.125 0.5625 0 
0.0625 0.5625 0 
0.0625 0.5 0 
0.125 0.53125 0 
0.09375 0.5625 0 
0.0625 0.53125 0 
0.09375 0.5 0 
0.125 0.5625 0 
0.125 0.625 0 
0.0625 0.625 0 
0.0625 0.5625 0 
0.125 0.59375 0 
0.09375 0.625 0 
0.0625 0.59375 0 
0.09375 0.5625 0 
0.0625 0.5625 0 
0.0625 0.625 0 
0 0.625 0 
0 0.5625 0 
0.0625 0.59375 0 
0.03125 0.625 0 
0 0.59375 0 
0.03125 0.5625 0 
0.0625 0.5 0 
0.0625 0.5625 0 
0 0.5625 0 
0 0.5 0 
0.0625 0.53125 0 
0.03125 0.5625 0 
0 0.53125 0 
0.03125 0.5 0 
0.5 1 0 
0.5 0.9375 0 
0.5625 0.9375 0 
0.5625 1 0 
0.5 0.96875 0 
0.53125 0.9375 0 
0.5625 0.96875 0 
0.53125 1 0 
0.5 0.9375 0 
0.5 0.875 0 
0.5625 0.875 0 
0.5625 0.9375 0 
0.5 0.90625 0 
0.53125 0.875 0 
0.5625 0.90625 0 
0.53125 0.9375 0 
0.5625 0.9375 0 
0.5625 0.875 0 
0.625 0.875 0 
0.625 0.9375 0 
0.5625 0.90625 0 
0.59375 0.875 0 
0.625 0.90625 0 
0.59375 0.9375 0 
0.5625 1 0 
0.5625 0.9375 0 
0.625 0.9375 0 
0.625 1 0 
0.5625 0.96875 0 
0.59375 0.9375 0 
0.625 0.96875 0 
0.59375 1 0 
0.5 0.875 0 
0.5 0.8125 0 
0.5625 0.8125 0 
0.5625 0.875 0 
0.5 0.84375 0 
0.53125 0.8125 0 
0.5625 0.84375 0 
0.53125 0.875 0 
0.5 0.8125 0 
0.5 0.75 0 
0.5625 0.75 0 
0.5625 0.8125 0 
0.5 0.78125 0 
0.53125 0.75 0 
0.5625 0.78125 0 
0.53125 0.8125 0 
0.5625 0.8125 0 
0.5625 0.75 0 
0.625 0.75 0 
0.625 0.8125 0 
0.5625 0.78125 0 
0.59375 0.75 0 
0.625 0.78125 0 
0.59375 0.8125 0 
0.5625 0.875 0 
0.5625 0.8125 0 
0.625 0.8125 0 
0.625 0.875 0 
0.5625 0.84375 0 
0.59375 0.8125 0 
0.625 0.84375 0 
0.59375 0.875 0 
0.625 0.875 0 
0.625 0.8125 0 
0.6875 0.8125 0 
0.6875 0.875 0 
0.625 0.84375 0 
0.65625 0.8125 0 
0.6875 0.84375 0 
0.65625 0.875 0 
0.625 0.8125 0 
0.625 0.75 0 
0.6875 0.75 0 
0.6875 0.8125 0 
0.625 0.78125 0 
0.65625 0.75 0 
0.6875 0.78125 0 
0.65625 0.8125 0 
0.6875 0.8125 0 
0.6875 0.75 0 
0.75 0.75 0 
0.75 0.8125 0 
0.6875 0.78125 0 
0.71875 0.75 0 
0.75 0.78125 0 
0.71875 0.8125 0 
0.6875 0.875 0 
0.6875 0.8125 0 
0.75 0.8125 0 
0.75 0.875 0 
0.6875 0.84375 0 
0.71875 0.8125 0 
0.75 0.84375 0 
0.71875 0.875 0 
0.625 1 0 
0.625 0.9375 0 
0.6875 0.9375 0 
0.6875 1 0 
0.625 0.96875 0 
0.65625 0.9375 0 
0.6875 0.96875 0 
0.65625 1 0 
0.625 0.9375 0 
0.625 0.875 0 
[...]
CELL_DATA 256
FIELD FieldData 2
material 1 256 int
1
1
1
1
1
1
1
1
1
1
1
1
1
1
1
1
1
1
1
1
1
1
1
1
1
1
1
1
1
1
1
1
1
1
1
1
1
1
1
1
1
1
1
1
1
1
1
1
1
1
1
1
1
1
1
1
1
1
1
1
1
1
1
1
1
1
1
1
1
1
1
1
1
1
1
1
1
1
1
1
1
1
1
1
1
1
1
1
1
1
1
1
1
1
1
1
1
1
1
1
1
1
1
1
1
1
1
1
1
1
1
1
1
1
1
1
1
1
1
1
1
1
1
1
1
1
1
1
1
1
1
1
1
1
1
1
1
1
1
1
1
1
1
1
1
1
1
1
1
1
1
1
1
1
1
1
1
1
1
1
1
1
1
1
1
1
1
1
1
1
1
1
1
1
1
1
1
1
1
1
1
1
1
1
1
1
1
1
1
1
1
1
1
1
1
1
1
1
1
1
1
1
1
1
1
1
1
1
1
1
1
1
1
1
1
1
1
1
1
1
1
1
1
1
1
1
1
1
1
1
1
1
1
1
1
1
1
1
1
1
1
1
1
1
1
1
1
1
1
1
1
1
1
1
1
1
elindex 1 256 int
65
66
67
68
69
70
71
72
73
74
75
76
77
78
79
80
81
82
83
84
85
86
87
88
89
90
91
92
93
94
95
96
97
98
99
100
101
102
103
104
105
106
107
108
109
110
111
112
113
114
115
116
117
118
119
120
121
122
123
124
125
126
127
128
129
130
131
132
133
134
135
136
137
138
139
140
141
142
143
144
145
146
147
148
149
150
151
152
153
154
155
156
157
158
159
160
161
162
163
164
165
166
167
168
169
170
171
172
173
174
175
176
177
178
179
180
181
182
183
184
185
186
187
188
189
190
191
192
193
194
195
196
197
198
199
200
201
202
203
204
205
206
207
208
209
210
211
212
213
214
215
216
217
218
219
220
221
222
223
224
225
226
227
228
229
230
231
232
233
234
235
236
237
238
239
240
241
242
243
244
245
246
247
248
249
250
251
252
253
254
255
256
257
258
259
260
261
262
263
264
265
266
267
268
269
270
271
272
273
274
275
276
277
278
279
280
281
282
283
284
285
286
287
288
289
290
291
292
293
294
295
296
297
298
299
300
301
302
303
304
305
306
307
308
309
310
311
312
313
314
315
316
317
318
319
320
POINT_DATA 2048
SCALARS Sol float
LOOKUP_TABLE default
0.0626924 
0.0617133 
0.0607495 
0.0617133 
0.0622029 
0.0612314 
0.0612314 
0.0622029 
0.0617133 
0.0587759 
0.057858 
0.0607495 
0.0602446 
0.0583169 
0.0593037 
0.0612314 
0.0607495 
0.057858 
0.0551042 
0.057858 
0.0593037 
0.0564811 
0.0564811 
0.0593037 
0.0617133 
0.0607495 
0.057858 
0.0587759 
0.0612314 
0.0593037 
0.0583169 
0.0602446 
0.0587759 
0.0538798 
0.0530384 
0.057858 
0.0563279 
0.0534591 
0.0554482 
0.0583169 
0.0538798 
0.0470248 
0.0462905 
0.0530384 
0.0504523 
0.0466576 
0.0496645 
0.0534591 
0.0530384 
0.0462905 
0.0440876 
0.0505142 
0.0496645 
0.045189 
0.0473009 
0.0517763 
0.057858 
0.0530384 
0.0505142 
0.0551042 
0.0554482 
0.0517763 
0.0528092 
0.0564811 
0.0551042 
0.0505142 
0.0463067 
0.0505142 
0.0528092 
0.0484105 
0.0484105 
0.0528092 
0.0505142 
0.0440876 
0.0404157 
0.0463067 
0.0473009 
0.0422517 
0.0433612 
0.0484105 
0.0463067 
0.0404157 
0.0352746 
0.0404157 
0.0433612 
0.0378452 
0.0378452 
0.0433612 
0.0505142 
0.0463067 
0.0404157 
0.0440876 
0.0484105 
0.0433612 
0.0422517 
0.0473009 
0.0587759 
0.057858 
0.0530384 
0.0538798 
0.0583169 
0.0554482 
0.0534591 
0.0563279 
0.057858 
0.0551042 
0.0505142 
0.0530384 
0.0564811 
0.0528092 
0.0517763 
0.0554482 
0.0530384 
0.0505142 
0.0440876 
0.0462905 
0.0517763 
0.0473009 
0.045189 
0.0496645 
0.0538798 
0.0530384 
0.0462905 
0.0470248 
0.0534591 
0.0496645 
0.0466576 
0.0504523 
0.0470248 
0.0382101 
0.0376135 
0.0462905 
0.0426174 
0.0379118 
0.041952 
0.0466576 
0.0382101 
0.027435 
0.0270067 
0.0376135 
0.0328225 
0.0272208 
0.0323101 
0.0379118 
0.0376135 
0.0270067 
0.0257218 
0.0358237 
0.0323101 
0.0263643 
0.0307728 
0.0367186 
0.0462905 
0.0376135 
0.0358237 
0.0440876 
0.041952 
0.0367186 
0.0399556 
0.045189 
0.027435 
0.0146986 
0.0144692 
0.0270067 
0.0210668 
0.0145839 
0.020738 
0.0272208 
0.0146986 
2.50882e-13 
2.46967e-13 
0.0144692 
0.00734931 
2.48924e-13 
0.00723461 
0.0145839 
0.0144692 
2.46967e-13 
2.35222e-13 
0.013781 
0.00723461 
2.41094e-13 
0.00689048 
0.0141251 
0.0270067 
0.0144692 
0.013781 
0.0257218 
0.020738 
0.0141251 
0.0197514 
0.0263643 
0.0257218 
0.013781 
0.0126338 
0.0235802 
0.0197514 
0.0132074 
0.018107 
0.024651 
0.013781 
2.35222e-13 
2.15646e-13 
0.0126338 
0.00689048 
2.25434e-13 
0.00631689 
0.0132074 
0.0126338 
2.15646e-13 
1.88235e-13 
0.0110275 
0.00631689 
2.01941e-13 
0.00551374 
0.0118306 
0.0235802 
0.0126338 
0.0110275 
0.0205815 
0.018107 
0.0118306 
0.0158045 
0.0220809 
0.0440876 
0.0358237 
0.0328405 
0.0404157 
0.0399556 
0.0343321 
0.0366281 
0.0422517 
0.0358237 
0.0257218 
0.0235802 
0.0328405 
0.0307728 
0.024651 
0.0282104 
0.0343321 
0.0328405 
0.0235802 
0.0205815 
0.0286635 
0.0282104 
0.0220809 
0.0246225 
0.030752 
0.0404157 
0.0328405 
0.0286635 
0.0352746 
0.0366281 
0.030752 
0.031969 
0.0378452 
0.0352746 
0.0286635 
0.023292 
0.0286635 
0.031969 
0.0259778 
0.0259778 
0.031969 
0.0286635 
0.0205815 
0.0167252 
0.023292 
0.0246225 
0.0186534 
0.0200086 
0.0259778 
0.023292 
0.0167252 
0.0120106 
0.0167252 
0.0200086 
0.0143679 
0.0143679 
0.0200086 
0.0286635 
0.023292 
0.0167252 
0.0205815 
0.0259778 
0.0200086 
0.0186534 
0.0246225 
0.0205815 
0.0110275 
0.00896181 
0.0167252 
0.0158045 
0.00999464 
0.0128435 
0.0186534 
0.0110275 
1.88235e-13 
1.52987e-13 
0.00896181 
0.00551374 
1.70611e-13 
0.0044809 
0.00999464 
0.00896181 
1.52987e-13 
1.09888e-13 
0.00643626 
0.0044809 
1.31437e-13 
0.00321813 
0.00769903 
0.0167252 
0.00896181 
0.00643626 
0.0120106 
0.0128435 
0.00769903 
0.00922344 
0.0143679 
0.0120106 
0.00643626 
0.0034499 
0.00643626 
0.00922344 
0.00494308 
0.00494308 
0.00922344 
0.00643626 
1.09888e-13 
5.89356e-14 
0.0034499 
0.00321813 
8.44119e-14 
0.00172495 
0.00494308 
0.0034499 
5.89356e-14 
2.34924e-17 
5.89356e-14 
0.00172495 
2.94796e-14 
2.94796e-14 
0.00172495 
0.00643626 
0.0034499 
5.89356e-14 
1.09888e-13 
0.00494308 
0.00172495 
8.44119e-14 
0.00321813 
0.0205815 
0.0167252 
0.00896181 
0.0110275 
0.0186534 
0.0128435 
0.00999464 
0.0158045 
0.0167252 
0.0120106 
0.00643626 
0.00896181 
0.0143679 
0.00922344 
0.00769903 
0.0128435 
0.00896181 
0.00643626 
1.09888e-13 
1.52987e-13 
0.00769903 
0.00321813 
1.31437e-13 
0.0044809 
0.0110275 
0.00896181 
1.52987e-13 
1.88235e-13 
0.00999464 
0.0044809 
1.70611e-13 
0.00551374 
0.0470248 
0.0462905 
0.0376135 
0.0382101 
0.0466576 
0.041952 
0.0379118 
0.0426174 
0.0462905 
0.0440876 
0.0358237 
0.0376135 
0.045189 
0.0399556 
0.0367186 
0.041952 
0.0376135 
0.0358237 
0.0257218 
0.0270067 
0.0367186 
0.0307728 
0.0263643 
0.0323101 
0.0382101 
0.0376135 
0.0270067 
0.027435 
0.0379118 
0.0323101 
0.0272208 
0.0328225 
0.0440876 
0.0404157 
0.0328405 
0.0358237 
0.0422517 
0.0366281 
0.0343321 
0.0399556 
0.0404157 
0.0352746 
0.0286635 
0.0328405 
0.0378452 
0.031969 
0.030752 
0.0366281 
0.0328405 
0.0286635 
0.0205815 
0.0235802 
0.030752 
0.0246225 
0.0220809 
0.0282104 
0.0358237 
0.0328405 
0.0235802 
0.0257218 
0.0343321 
0.0282104 
0.024651 
0.0307728 
0.0257218 
0.0235802 
0.0126338 
0.013781 
0.024651 
0.018107 
0.0132074 
0.0197514 
0.0235802 
0.0205815 
0.0110275 
0.0126338 
0.0220809 
0.0158045 
0.0118306 
0.018107 
0.0126338 
0.0110275 
1.88235e-13 
2.15646e-13 
0.0118306 
0.00551374 
2.01941e-13 
0.00631689 
0.013781 
0.0126338 
2.15646e-13 
2.35222e-13 
0.0132074 
0.00631689 
2.25434e-13 
0.00689048 
0.027435 
0.0270067 
0.0144692 
0.0146986 
0.0272208 
0.020738 
0.0145839 
0.0210668 
0.0270067 
0.0257218 
0.013781 
0.0144692 
0.0263643 
0.0197514 
0.0141251 
0.020738 
0.0144692 
0.013781 
2.35222e-13 
2.46967e-13 
0.0141251 
0.00689048 
2.41094e-13 
0.00723461 
0.0146986 
0.0144692 
2.46967e-13 
2.50882e-13 
0.0145839 
0.00723461 
2.48924e-13 
0.00734931 
2.50882e-13 
0.0146986 
0.0144692 
2.46967e-13 
0.00734931 
0.0145839 
0.00723461 
2.48924e-13 
0.0146986 
0.027435 
0.0270067 
0.0144692 
0.0210668 
0.0272208 
0.020738 
0.0145839 
0.0144692 
0.0270067 
0.0257218 
0.013781 
0.020738 
0.0263643 
0.0197514 
0.0141251 
2.46967e-13 
0.0144692 
0.013781 
2.35222e-13 
0.00723461 
0.0141251 
0.00689048 
2.41094e-13 
0.027435 
0.0382101 
0.0376135 
0.0270067 
0.0328225 
0.0379118 
0.0323101 
0.0272208 
0.0382101 
0.0470248 
0.0462905 
0.0376135 
0.0426174 
0.0466576 
0.041952 
0.0379118 
0.0376135 
0.0462905 
0.0440876 
0.0358237 
0.041952 
0.045189 
0.0399556 
0.0367186 
0.0270067 
0.0376135 
0.0358237 
0.0257218 
0.0323101 
0.0367186 
0.0307728 
0.0263643 
0.0257218 
0.0358237 
0.0328405 
0.0235802 
0.0307728 
0.0343321 
0.0282104 
0.024651 
0.0358237 
0.0440876 
0.0404157 
0.0328405 
0.0399556 
0.0422517 
0.0366281 
0.0343321 
0.0328405 
0.0404157 
0.0352746 
0.0286635 
0.0366281 
0.0378452 
0.031969 
0.030752 
0.0235802 
0.0328405 
0.0286635 
0.0205815 
0.0282104 
0.030752 
0.0246225 
0.0220809 
2.35222e-13 
0.013781 
0.0126338 
2.15646e-13 
0.00689048 
0.0132074 
0.00631689 
2.25434e-13 
0.013781 
0.0257218 
0.0235802 
0.0126338 
0.0197514 
0.024651 
0.018107 
0.0132074 
0.0126338 
0.0235802 
0.0205815 
0.0110275 
0.018107 
0.0220809 
0.0158045 
0.0118306 
2.15646e-13 
0.0126338 
0.0110275 
1.88235e-13 
0.00631689 
0.0118306 
0.00551374 
2.01941e-13 
0.0470248 
0.0538798 
0.0530384 
0.0462905 
0.0504523 
0.0534591 
0.0496645 
0.0466576 
0.0538798 
0.0587759 
0.057858 
0.0530384 
0.0563279 
0.0583169 
0.0554482 
0.0534591 
0.0530384 
0.057858 
0.0551042 
0.0505142 
0.0554482 
0.0564811 
0.0528092 
0.0517763 
0.0462905 
0.0530384 
0.0505142 
0.0440876 
0.0496645 
0.0517763 
0.0473009 
0.045189 
0.0587759 
0.0617133 
0.0607495 
0.057858 
0.0602446 
0.0612314 
0.0593037 
0.0583169 
0.0617133 
0.0626924 
0.0617133 
0.0607495 
0.0622029 
0.0622029 
0.0612314 
0.0612314 
0.0607495 
0.0617133 
0.0587759 
0.057858 
0.0612314 
0.0602446 
0.0583169 
0.0593037 
0.057858 
0.0607495 
0.057858 
0.0551042 
0.0593037 
0.0593037 
0.0564811 
0.0564811 
0.0551042 
0.057858 
0.0530384 
0.0505142 
0.0564811 
0.0554482 
0.0517763 
0.0528092 
0.057858 
0.0587759 
0.0538798 
0.0530384 
0.0583169 
0.0563279 
0.0534591 
0.0554482 
0.0530384 
0.0538798 
0.0470248 
0.0462905 
0.0534591 
0.0504523 
0.0466576 
0.0496645 
0.0505142 
0.0530384 
0.0462905 
0.0440876 
0.0517763 
0.0496645 
0.045189 
0.0473009 
0.0440876 
0.0505142 
0.0463067 
0.0404157 
0.0473009 
0.0484105 
0.0433612 
0.0422517 
0.0505142 
0.0551042 
0.0505142 
0.0463067 
0.0528092 
0.0528092 
0.0484105 
0.0484105 
0.0463067 
0.0505142 
0.0440876 
0.0404157 
0.0484105 
0.0473009 
0.0422517 
0.0433612 
0.0404157 
0.0463067 
0.0404157 
0.0352746 
0.0433612 
0.0433612 
0.0378452 
0.0378452 
0.0352746 
0.0404157 
0.0328405 
0.0286635 
0.0378452 
0.0366281 
0.030752 
0.031969 
0.0404157 
0.0440876 
0.0358237 
0.0328405 
0.0422517 
0.0399556 
0.0343321 
0.0366281 
0.0328405 
0.0358237 
0.0257218 
0.0235802 
0.0343321 
0.0307728 
0.024651 
0.0282104 
0.0286635 
0.0328405 
0.0235802 
0.0205815 
0.030752 
0.0282104 
0.0220809 
0.0246225 
0.0440876 
0.0462905 
0.0376135 
0.0358237 
0.045189 
0.041952 
0.0367186 
0.0399556 
0.0462905 
0.0470248 
0.0382101 
0.0376135 
0.0466576 
0.0426174 
0.0379118 
0.041952 
0.0376135 
0.0382101 
0.027435 
0.0270067 
0.0379118 
0.0328225 
0.0272208 
0.0323101 
0.0358237 
0.0376135 
0.0270067 
0.0257218 
0.0367186 
0.0323101 
0.0263643 
0.0307728 
0.0257218 
0.0270067 
0.0144692 
0.013781 
0.0263643 
0.020738 
0.0141251 
0.0197514 
0.0270067 
0.027435 
0.0146986 
0.0144692 
0.0272208 
0.0210668 
0.0145839 
0.020738 
0.0144692 
0.0146986 
2.50882e-13 
2.46967e-13 
0.0145839 
0.00734931 
2.48924e-13 
0.00723461 
0.013781 
0.0144692 
2.46967e-13 
2.35222e-13 
0.0141251 
0.00723461 
2.41094e-13 
0.00689048 
0.0205815 
0.0235802 
0.0126338 
0.0110275 
0.0220809 
0.018107 
0.0118306 
0.0158045 
0.0235802 
0.0257218 
0.013781 
0.0126338 
0.024651 
0.0197514 
0.0132074 
0.018107 
0.0126338 
0.013781 
2.35222e-13 
2.15646e-13 
0.0132074 
0.00689048 
2.25434e-13 
0.00631689 
0.0110275 
0.0126338 
2.15646e-13 
1.88235e-13 
0.0118306 
0.00631689 
2.01941e-13 
0.00551374 
1.88235e-13 
0.0110275 
0.00896181 
1.52987e-13 
0.00551374 
0.00999464 
0.0044809 
1.70611e-13 
0.0110275 
0.0205815 
0.0167252 
0.00896181 
0.0158045 
0.0186534 
0.0128435 
0.00999464 
0.00896181 
0.0167252 
0.0120106 
0.00643626 
0.0128435 
0.0143679 
0.00922344 
0.00769903 
1.52987e-13 
0.00896181 
0.00643626 
1.09888e-13 
0.0044809 
0.00769903 
0.00321813 
1.31437e-13 
0.0205815 
0.0286635 
0.023292 
0.0167252 
0.0246225 
0.0259778 
0.0200086 
0.0186534 
0.0286635 
0.0352746 
0.0286635 
0.023292 
0.031969 
0.031969 
0.0259778 
0.0259778 
0.023292 
0.0286635 
0.0205815 
0.0167252 
0.0259778 
0.0246225 
0.0186534 
0.0200086 
0.0167252 
0.023292 
0.0167252 
0.0120106 
0.0200086 
0.0200086 
0.0143679 
0.0143679 
0.0120106 
0.0167252 
0.00896181 
0.00643626 
0.0143679 
0.0128435 
0.00769903 
0.00922344 
0.0167252 
0.0205815 
0.0110275 
0.00896181 
0.0186534 
0.0158045 
0.00999464 
0.0128435 
0.00896181 
0.0110275 
1.88235e-13 
1.52987e-13 
0.00999464 
0.00551374 
1.70611e-13 
0.0044809 
0.00643626 
0.00896181 
1.52987e-13 
1.09888e-13 
0.00769903 
0.0044809 
1.31437e-13 
0.00321813 
1.09888e-13 
0.00643626 
0.0034499 
5.89356e-14 
0.00321813 
0.00494308 
0.00172495 
8.44119e-14 
0.00643626 
0.0120106 
0.00643626 
0.0034499 
0.00922344 
0.00922344 
0.00494308 
0.00494308 
0.0034499 
0.00643626 
1.09888e-13 
5.89356e-14 
0.00494308 
0.00321813 
8.44119e-14 
0.00172495 
5.89356e-14 
0.0034499 
5.89356e-14 
2.34924e-17 
0.00172495 
0.00172495 
2.94796e-14 
2.94796e-14 
2.50882e-13 
0.0146986 
0.0144692 
2.46967e-13 
0.00734931 
0.0145839 
0.00723461 
2.48924e-13 
0.0146986 
0.027435 
0.0270067 
0.0144692 
0.0210668 
0.0272208 
0.020738 
0.0145839 
0.0144692 
0.0270067 
0.0257218 
0.013781 
0.020738 
0.0263643 
0.0197514 
0.0141251 
2.46967e-13 
0.0144692 
0.013781 
2.35222e-13 
0.00723461 
0.0141251 
0.00689048 
2.41094e-13 
0.027435 
0.0382101 
0.0376135 
0.0270067 
0.0328225 
0.0379118 
0.0323101 
0.0272208 
0.0382101 
0.0470248 
0.0462905 
0.0376135 
0.0426174 
0.0466576 
0.041952 
0.0379118 
0.0376135 
0.0462905 
0.0440876 
0.0358237 
0.041952 
0.045189 
0.0399556 
0.0367186 
0.0270067 
0.0376135 
0.0358237 
0.0257218 
0.0323101 
0.0367186 
0.0307728 
0.0263643 
0.0257218 
0.0358237 
0.0328405 
0.0235802 
0.0307728 
0.0343321 
0.0282104 
0.024651 
0.0358237 
0.0440876 
0.0404157 
0.0328405 
0.0399556 
0.0422517 
0.0366281 
0.0343321 
0.0328405 
0.0404157 
0.0352746 
0.0286635 
0.0366281 
0.0378452 
0.031969 
0.030752 
0.0235802 
0.0328405 
0.0286635 
0.0205815 
0.0282104 
0.030752 
0.0246225 
0.0220809 
2.35222e-13 
0.013781 
0.0126338 
2.15646e-13 
0.00689048 
0.0132074 
0.00631689 
2.25434e-13 
0.013781 
0.0257218 
0.0235802 
0.0126338 
0.0197514 
0.024651 
0.018107 
0.0132074 
0.0126338 
0.0235802 
0.0205815 
0.0110275 
0.018107 
0.0220809 
0.0158045 
0.0118306 
2.15646e-13 
0.0126338 
0.0110275 
1.88235e-13 
0.00631689 
0.0118306 
0.00551374 
2.01941e-13 
0.0470248 
0.0538798 
0.0530384 
0.0462905 
0.0504523 
0.0534591 
0.0496645 
0.0466576 
0.0538798 
0.0587759 
0.057858 
0.0530384 
0.0563279 
0.0583169 
0.0554482 
0.0534591 
0.0530384 
0.057858 
0.0551042 
0.0505142 
0.0554482 
0.0564811 
0.0528092 
0.0517763 
0.0462905 
0.0530384 
0.0505142 
0.0440876 
0.0496645 
0.0517763 
0.0473009 
0.045189 
0.0587759 
0.0617133 
0.0607495 
0.057858 
0.0602446 
0.0612314 
0.0593037 
0.0583169 
0.0617133 
0.0626924 
0.0617133 
0.0607495 
0.0622029 
0.0622029 
0.0612314 
0.0612314 
0.0607495 
0.0617133 
0.0587759 
0.057858 
0.0612314 
0.0602446 
0.0583169 
0.0593037 
0.057858 
0.0607495 
0.057858 
0.0551042 
0.0593037 
0.0593037 
0.0564811 
0.0564811 
0.0551042 
0.057858 
0.0530384 
0.0505142 
0.0564811 
0.0554482 
0.0517763 
0.0528092 
0.057858 
0.0587759 
0.0538798 
0.0530384 
0.0583169 
0.0563279 
0.0534591 
0.0554482 
0.0530384 
0.0538798 
0.0470248 
0.0462905 
0.0534591 
0.0504523 
0.0466576 
0.0496645 
0.0505142 
0.0530384 
0.0462905 
0.0440876 
0.0517763 
0.0496645 
0.045189 
0.0473009 
0.0440876 
0.0505142 
0.0463067 
0.0404157 
0.0473009 
0.0484105 
0.0433612 
0.0422517 
0.0505142 
0.0551042 
0.0505142 
0.0463067 
0.0528092 
0.0528092 
0.0484105 
0.0484105 
0.0463067 
0.0505142 
0.0440876 
0.0404157 
0.0484105 
0.0473009 
0.0422517 
0.0433612 
0.0404157 
0.0463067 
0.0404157 
0.0352746 
0.0433612 
0.0433612 
0.0378452 
0.0378452 
0.0352746 
0.0404157 
0.0328405 
0.0286635 
0.0378452 
0.0366281 
0.030752 
0.031969 
0.0404157 
0.0440876 
0.0358237 
0.0328405 
0.0422517 
0.0399556 
0.0343321 
0.0366281 
0.0328405 
0.0358237 
0.0257218 
0.0235802 
0.0343321 
0.0307728 
0.024651 
0.0282104 
0.0286635 
0.0328405 
0.0235802 
0.0205815 
0.030752 
0.0282104 
0.0220809 
0.0246225 
0.0440876 
0.0462905 
0.0376135 
0.0358237 
0.045189 
0.041952 
0.0367186 
0.0399556 
0.0462905 
0.0470248 
0.0382101 
0.0376135 
0.0466576 
0.0426174 
0.0379118 
0.041952 
0.0376135 
0.0382101 
0.027435 
0.0270067 
0.0379118 
0.0328225 
0.0272208 
0.0323101 
0.0358237 
0.0376135 
0.0270067 
0.0257218 
0.0367186 
0.0323101 
0.0263643 
0.0307728 
0.0257218 
0.0270067 
0.0144692 
0.013781 
0.0263643 
0.020738 
0.0141251 
0.0197514 
0.0270067 
0.027435 
0.0146986 
0.0144692 
0.0272208 
0.0210668 
0.0145839 
0.020738 
0.0144692 
0.0146986 
2.50882e-13 
2.46967e-13 
0.0145839 
0.00734931 
2.48924e-13 
0.00723461 
0.013781 
0.0144692 
2.46967e-13 
2.35222e-13 
0.0141251 
0.00723461 
2.41094e-13 
0.00689048 
0.0205815 
0.0235802 
0.0126338 
0.0110275 
0.0220809 
0.018107 
0.0118306 
0.0158045 
0.0235802 
0.0257218 
0.013781 
0.0126338 
0.024651 
0.0197514 
0.0132074 
0.018107 
0.0126338 
0.013781 
2.35222e-13 
2.15646e-13 
0.0132074 
0.00689048 
2.25434e-13 
0.00631689 
0.0110275 
0.0126338 
2.15646e-13 
1.88235e-13 
0.0118306 
0.00631689 
2.01941e-13 
0.00551374 
1.88235e-13 
0.0110275 
0.00896181 
1.52987e-13 
0.00551374 
0.00999464 
0.0044809 
1.70611e-13 
0.0110275 
0.0205815 
0.0167252 
0.00896181 
0.0158045 
0.0186534 
0.0128435 
0.00999464 
0.00896181 
0.0167252 
0.0120106 
0.00643626 
0.0128435 
0.0143679 
0.00922344 
0.00769903 
1.52987e-13 
0.00896181 
0.00643626 
1.09886e-13 
0.0044809 
0.00769903 
0.00321813 
1.31437e-13 
0.0205815 
0.0286635 
0.023292 
0.0167252 
0.0246225 
0.0259778 
0.0200086 
0.0186534 
0.0286635 
0.0352746 
0.0286635 
0.023292 
0.031969 
0.031969 
0.0259778 
0.0259778 
0.023292 
0.0286635 
0.0205815 
0.0167252 
0.0259778 
0.0246225 
0.0186534 
0.0200086 
0.0167252 
0.023292 
0.0167252 
0.0120106 
0.0200086 
0.0200086 
0.0143679 
0.0143679 
0.0120106 
0.0167252 
0.00896181 
0.00643626 
0.0143679 
0.0128435 
0.00769903 
0.00922344 
0.0167252 
0.0205815 
0.0110275 
0.00896181 
0.0186534 
0.0158045 
0.00999464 
0.0128435 
0.00896181 
0.0110275 
1.88235e-13 
1.52987e-13 
0.00999464 
0.00551374 
1.70611e-13 
0.0044809 
0.00643626 
0.00896181 
1.52987e-13 
1.09886e-13 
0.00769903 
0.0044809 
1.31437e-13 
0.00321813 
1.09886e-13 
0.00643626 
0.0034499 
5.89417e-14 
0.00321813 
0.00494308 
0.00172495 
8.44141e-14 
0.00643626 
0.0120106 
0.00643626 
0.0034499 
0.00922344 
0.00922344 
0.00494308 
0.00494308 
0.0034499 
0.00643626 
1.09886e-13 
5.89417e-14 
0.00494308 
0.00321813 
8.44141e-14 
0.00172495 
5.89417e-14 
0.0034499 
5.89417e-14 
8.18187e-19 
0.00172495 
0.00172495 
2.94713e-14 
2.94713e-14 
2.34924e-17 
5.89356e-14 
0.0034499 
5.89356e-14 
2.94796e-14 
0.00172495 
0.00172495 
2.94796e-14 
5.89356e-14 
1.09888e-13 
0.00643626 
0.0034499 
8.44119e-14 
0.00321813 
0.00494308 
0.00172495 
0.0034499 
0.00643626 
0.0120106 
0.00643626 
0.00494308 
0.00922344 
0.00922344 
0.00494308 
5.89356e-14 
0.0034499 
0.00643626 
1.09888e-13 
0.00172495 
0.00494308 
0.00321813 
8.44119e-14 
1.09888e-13 
1.52987e-13 
0.00896181 
0.00643626 
1.31437e-13 
0.0044809 
0.00769903 
0.00321813 
1.52987e-13 
1.88235e-13 
0.0110275 
0.00896181 
1.70611e-13 
0.00551374 
0.00999464 
0.0044809 
0.00896181 
0.0110275 
0.0205815 
0.0167252 
0.00999464 
0.0158045 
0.0186534 
0.0128435 
0.00643626 
0.00896181 
0.0167252 
0.0120106 
0.00769903 
0.0128435 
0.0143679 
0.00922344 
0.0120106 
0.0167252 
0.023292 
0.0167252 
0.0143679 
0.0200086 
0.0200086 
0.0143679 
0.0167252 
0.0205815 
0.0286635 
0.023292 
0.0186534 
0.0246225 
0.0259778 
0.0200086 
0.023292 
0.0286635 
0.0352746 
0.0286635 
0.0259778 
0.031969 
0.031969 
0.0259778 
0.0167252 
0.023292 
0.0286635 
0.0205815 
0.0200086 
0.0259778 
0.0246225 
0.0186534 
1.09888e-13 
0.00643626 
0.00896181 
1.52987e-13 
0.00321813 