# vtk DataFile Version 3.0
TPZGeoMesh VTK Visualization
ASCII

DATASET UNSTRUCTURED_GRID
POINTS 32 float
0.5 0.5 0 
0.5 1 0 
0 1 0 
0 0.5 0 
0.5 0.75 0 
0.25 1 0 
0 0.75 0 
0.25 0.5 0 
0.5 1 0 
0.5 0.5 0 
1 0.5 0 
1 1 0 
0.5 0.75 0 
0.75 0.5 0 
1 0.75 0 
0.75 1 0 
0.5 0 0 
0.5 0.5 0 
0 0.5 0 
0 0 0 
0.5 0.25 0 
0.25 0.5 0 
0 0.25 0 
0.25 0 0 
1 0 0 
1 0.5 0 
0.5 0.5 0 
0.5 0 0 
1 0.25 0 
0.75 0.5 0 
0.5 0.25 0 
0.75 0 0 
CELLS 4 36
8 0 1 2 3 4 5 6 7
8 8 9 10 11 12 13 14 15
8 16 17 18 19 20 21 22 23
8 24 25 26 27 28 29 30 31

CELL_TYPES 4
23
23
23
23

CELL_DATA 4
FIELD FieldData 2
material 1 4 int
1
1
1
1
elindex 1 4 int
9
10
11
12
POINT_DATA 32
SCALARS Sol float
LOOKUP_TABLE default
0.078125 
3.23083e-13 
9.83333e-15 
3.25083e-13 
0.0390625 
1.66458e-13 
1.67458e-13 
0.0390625 
3.23083e-13 
0.078125 
3.23083e-13 
1.03333e-14 
0.0390625 
0.0390625 
1.66708e-13 
1.66708e-13 
3.25083e-13 
0.078125 
3.25083e-13 
2.33333e-15 
0.0390625 
0.0390625 
1.63708e-13 
1.63708e-13 
9.83333e-15 
3.23083e-13 
0.078125 
3.25083e-13 
1.66458e-13 
0.0390625 
0.0390625 
1.67458e-13 
SCALARS Force float
LOOKUP_TABLE default
1 
0.5 
0 
0.5 
0.875 
0.375 
0.375 
0.875 
0.5 
1 
0.5 
0 
0.875 
0.875 
0.375 
0.375 
0.5 
1 
0.5 
0 
0.875 
0.875 
0.375 
0.375 
0 
0.5 
1 
0.5 
0.375 
0.875 
0.875 
0.375 
SCALARS SolExact float
LOOKUP_TABLE default
0.0625 
0 
0 
0 
0.046875 
0 
0 
0.046875 
0 
0.0625 
0 
0 
0.046875 
0.046875 
0 
0 
0 
0.0625 
0 
0 
0.046875 
0.046875 
0 
0 
0 
0 
0.0625 
0 
0 
0.046875 
0.046875 
0 
VECTORS DSol float
0.15625 -0.15625 0 
6.265e-13 -0.15625 0 
6.265e-13 -6.305e-13 0 
0.15625 -6.305e-13 0 
0.078125 -0.15625 0 
6.265e-13 -0.078125 0 
0.078125 -6.305e-13 0 
0.15625 -0.078125 0 
-6.255e-13 -0.15625 0 
-0.15625 -0.15625 0 
-0.15625 -6.255e-13 0 
-6.255e-13 -6.255e-13 0 
-0.078125 -0.15625 0 
-0.15625 -0.078125 0 
-0.078125 -6.255e-13 0 
-6.255e-13 -0.078125 0 
6.455e-13 0.15625 0 
0.15625 0.15625 0 
0.15625 6.455e-13 0 
6.455e-13 6.455e-13 0 
0.078125 0.15625 0 
0.15625 0.078125 0 
0.078125 6.455e-13 0 
6.455e-13 0.078125 0 
-6.305e-13 6.265e-13 0 
-0.15625 6.265e-13 0 
-0.15625 0.15625 0 
-6.305e-13 0.15625 0 
-0.078125 6.265e-13 0 
-0.15625 0.078125 0 
-0.078125 0.15625 0 
-6.305e-13 0.078125 0 
VECTORS Flux float
-0.15625 -0.15625 0 
-0.15625 -1.22966e-12 0 
-6.305e-13 -6.265e-13 0 
-6.305e-13 -0.15625 0 
-0.15625 -0.078125 0 
-0.078125 -7.77291e-13 0 
-6.305e-13 -0.078125 0 
-0.078125 -0.15625 0 
0.15625 -2.23366e-14 0 
0.15625 -0.15625 0 
6.255e-13 -0.15625 0 
6.255e-13 -6.255e-13 0 
0.15625 -0.078125 0 
0.078125 -0.15625 0 
6.255e-13 -0.078125 0 
0.078125 -4.74709e-13 0 
0.15625 -1.97057e-13 0 
0.15625 -0.15625 0 
6.455e-13 -0.15625 0 
6.455e-13 -6.455e-13 0 
0.15625 -0.078125 0 
0.078125 -0.15625 0 
6.455e-13 -0.078125 0 
0.078125 -5.33389e-13 0 
6.265e-13 6.305e-13 0 
6.265e-13 0.15625 0 
0.15625 0.15625 0 
0.15625 1.07894e-12 0 
6.265e-13 0.078125 0 
0.078125 0.15625 0 
0.15625 0.078125 0 
0.078125 7.42611e-13 0 
VECTORS DSolExact float
-6.4504e-14 -3.45834e-13 0 
-0 -0.25 0 
0 -0 0 
0.25 -0 0 
-4.10255e-13 -0.125 0 
0 -0.1875 0 
0.1875 -0 0 
0.125 -5.15754e-13 0 
-0 -0.25 0 
-6.4504e-14 -3.45834e-13 0 
-0.25 -0 0 
-0 -0 0 
-4.10255e-13 -0.125 0 
-0.125 -5.15754e-13 0 
-0.1875 -0 0 
-0 -0.1875 0 
0 0.25 0 
-6.4504e-14 -3.45834e-13 0 
0.25 -0 0 
0 0 0 
2.20698e-13 0.125 0 
0.125 -5.15754e-13 0 
0.1875 0 0 
0 0.1875 0 
-0 0 0 
-0.25 -0 0 
-6.4504e-14 -3.45834e-13 0 
0 0.25 0 
-0.1875 0 0 
-0.125 -5.15754e-13 0 
2.20698e-13 0.125 0 
-0 0.1875 0 
