# vtk DataFile Version 3.0
TPZGeoMesh VTK Visualization
ASCII

DATASET UNSTRUCTURED_GRID
POINTS 512 float
0.5 0.5 0 
0.5 0.625 0 
0.375 0.625 0 
0.375 0.5 0 
0.5 0.5625 0 
0.4375 0.625 0 
0.375 0.5625 0 
0.4375 0.5 0 
0.5 0.625 0 
0.5 0.75 0 
0.375 0.75 0 
0.375 0.625 0 
0.5 0.6875 0 
0.4375 0.75 0 
0.375 0.6875 0 
0.4375 0.625 0 
0.375 0.625 0 
0.375 0.75 0 
0.25 0.75 0 
0.25 0.625 0 
0.375 0.6875 0 
0.3125 0.75 0 
0.25 0.6875 0 
0.3125 0.625 0 
0.375 0.5 0 
0.375 0.625 0 
0.25 0.625 0 
0.25 0.5 0 
0.375 0.5625 0 
0.3125 0.625 0 
0.25 0.5625 0 
0.3125 0.5 0 
0.5 0.75 0 
0.5 0.875 0 
0.375 0.875 0 
0.375 0.75 0 
0.5 0.8125 0 
0.4375 0.875 0 
0.375 0.8125 0 
0.4375 0.75 0 
0.5 0.875 0 
0.5 1 0 
0.375 1 0 
0.375 0.875 0 
0.5 0.9375 0 
0.4375 1 0 
0.375 0.9375 0 
0.4375 0.875 0 
0.375 0.875 0 
0.375 1 0 
0.25 1 0 
0.25 0.875 0 
0.375 0.9375 0 
0.3125 1 0 
0.25 0.9375 0 
0.3125 0.875 0 
0.375 0.75 0 
0.375 0.875 0 
0.25 0.875 0 
0.25 0.75 0 
0.375 0.8125 0 
0.3125 0.875 0 
0.25 0.8125 0 
0.3125 0.75 0 
0.25 0.75 0 
0.25 0.875 0 
0.125 0.875 0 
0.125 0.75 0 
0.25 0.8125 0 
0.1875 0.875 0 
0.125 0.8125 0 
0.1875 0.75 0 
0.25 0.875 0 
0.25 1 0 
0.125 1 0 
0.125 0.875 0 
0.25 0.9375 0 
0.1875 1 0 
0.125 0.9375 0 
0.1875 0.875 0 
0.125 0.875 0 
0.125 1 0 
0 1 0 
0 0.875 0 
0.125 0.9375 0 
0.0625 1 0 
0 0.9375 0 
0.0625 0.875 0 
0.125 0.75 0 
0.125 0.875 0 
0 0.875 0 
0 0.75 0 
0.125 0.8125 0 
0.0625 0.875 0 
0 0.8125 0 
0.0625 0.75 0 
0.25 0.5 0 
0.25 0.625 0 
0.125 0.625 0 
0.125 0.5 0 
0.25 0.5625 0 
0.1875 0.625 0 
0.125 0.5625 0 
0.1875 0.5 0 
0.25 0.625 0 
0.25 0.75 0 
0.125 0.75 0 
0.125 0.625 0 
0.25 0.6875 0 
0.1875 0.75 0 
0.125 0.6875 0 
0.1875 0.625 0 
0.125 0.625 0 
0.125 0.75 0 
0 0.75 0 
0 0.625 0 
0.125 0.6875 0 
0.0625 0.75 0 
0 0.6875 0 
0.0625 0.625 0 
0.125 0.5 0 
0.125 0.625 0 
0 0.625 0 
0 0.5 0 
0.125 0.5625 0 
0.0625 0.625 0 
0 0.5625 0 
0.0625 0.5 0 
0.5 1 0 
0.5 0.875 0 
0.625 0.875 0 
0.625 1 0 
0.5 0.9375 0 
0.5625 0.875 0 
0.625 0.9375 0 
0.5625 1 0 
0.5 0.875 0 
0.5 0.75 0 
0.625 0.75 0 
0.625 0.875 0 
0.5 0.8125 0 
0.5625 0.75 0 
0.625 0.8125 0 
0.5625 0.875 0 
0.625 0.875 0 
0.625 0.75 0 
0.75 0.75 0 
0.75 0.875 0 
0.625 0.8125 0 
0.6875 0.75 0 
0.75 0.8125 0 
0.6875 0.875 0 
0.625 1 0 
0.625 0.875 0 
0.75 0.875 0 
0.75 1 0 
0.625 0.9375 0 
0.6875 0.875 0 
0.75 0.9375 0 
0.6875 1 0 
0.5 0.75 0 
0.5 0.625 0 
0.625 0.625 0 
0.625 0.75 0 
0.5 0.6875 0 
0.5625 0.625 0 
0.625 0.6875 0 
0.5625 0.75 0 
0.5 0.625 0 
0.5 0.5 0 
0.625 0.5 0 
0.625 0.625 0 
0.5 0.5625 0 
0.5625 0.5 0 
0.625 0.5625 0 
0.5625 0.625 0 
0.625 0.625 0 
0.625 0.5 0 
0.75 0.5 0 
0.75 0.625 0 
0.625 0.5625 0 
0.6875 0.5 0 
0.75 0.5625 0 
0.6875 0.625 0 
0.625 0.75 0 
0.625 0.625 0 
0.75 0.625 0 
0.75 0.75 0 
0.625 0.6875 0 
0.6875 0.625 0 
0.75 0.6875 0 
0.6875 0.75 0 
0.75 0.75 0 
0.75 0.625 0 
0.875 0.625 0 
0.875 0.75 0 
0.75 0.6875 0 
0.8125 0.625 0 
0.875 0.6875 0 
0.8125 0.75 0 
0.75 0.625 0 
0.75 0.5 0 
0.875 0.5 0 
0.875 0.625 0 
0.75 0.5625 0 
0.8125 0.5 0 
0.875 0.5625 0 
0.8125 0.625 0 
0.875 0.625 0 
0.875 0.5 0 
1 0.5 0 
1 0.625 0 
0.875 0.5625 0 
0.9375 0.5 0 
1 0.5625 0 
0.9375 0.625 0 
0.875 0.75 0 
0.875 0.625 0 
1 0.625 0 
1 0.75 0 
0.875 0.6875 0 
0.9375 0.625 0 
1 0.6875 0 
0.9375 0.75 0 
0.75 1 0 
0.75 0.875 0 
0.875 0.875 0 
0.875 1 0 
0.75 0.9375 0 
0.8125 0.875 0 
0.875 0.9375 0 
0.8125 1 0 
0.75 0.875 0 
0.75 0.75 0 
0.875 0.75 0 
0.875 0.875 0 
0.75 0.8125 0 
0.8125 0.75 0 
0.875 0.8125 0 
0.8125 0.875 0 
0.875 0.875 0 
0.875 0.75 0 
1 0.75 0 
1 0.875 0 
0.875 0.8125 0 
0.9375 0.75 0 
1 0.8125 0 
0.9375 0.875 0 
0.875 1 0 
0.875 0.875 0 
1 0.875 0 
1 1 0 
0.875 0.9375 0 
0.9375 0.875 0 
1 0.9375 0 
0.9375 1 0 
0.5 0 0 
0.5 0.125 0 
0.375 0.125 0 
0.375 0 0 
0.5 0.0625 0 
0.4375 0.125 0 
0.375 0.0625 0 
0.4375 0 0 
0.5 0.125 0 
0.5 0.25 0 
0.375 0.25 0 
0.375 0.125 0 
0.5 0.1875 0 
0.4375 0.25 0 
0.375 0.1875 0 
0.4375 0.125 0 
0.375 0.125 0 
0.375 0.25 0 
0.25 0.25 0 
0.25 0.125 0 
0.375 0.1875 0 
0.3125 0.25 0 
0.25 0.1875 0 
0.3125 0.125 0 
0.375 0 0 
0.375 0.125 0 
0.25 0.125 0 
0.25 0 0 
0.375 0.0625 0 
0.3125 0.125 0 
0.25 0.0625 0 
0.3125 0 0 
0.5 0.25 0 
0.5 0.375 0 
0.375 0.375 0 
0.375 0.25 0 
0.5 0.3125 0 
0.4375 0.375 0 
0.375 0.3125 0 
0.4375 0.25 0 
0.5 0.375 0 
0.5 0.5 0 
0.375 0.5 0 
0.375 0.375 0 
0.5 0.4375 0 
0.4375 0.5 0 
0.375 0.4375 0 
0.4375 0.375 0 
0.375 0.375 0 
0.375 0.5 0 
0.25 0.5 0 
0.25 0.375 0 
0.375 0.4375 0 
0.3125 0.5 0 
0.25 0.4375 0 
0.3125 0.375 0 
0.375 0.25 0 
0.375 0.375 0 
0.25 0.375 0 
0.25 0.25 0 
0.375 0.3125 0 
0.3125 0.375 0 
0.25 0.3125 0 
0.3125 0.25 0 
0.25 0.25 0 
0.25 0.375 0 
0.125 0.375 0 
0.125 0.25 0 
0.25 0.3125 0 
0.1875 0.375 0 
0.125 0.3125 0 
0.1875 0.25 0 
0.25 0.375 0 
0.25 0.5 0 
0.125 0.5 0 
0.125 0.375 0 
0.25 0.4375 0 
0.1875 0.5 0 
0.125 0.4375 0 
0.1875 0.375 0 
0.125 0.375 0 
0.125 0.5 0 
0 0.5 0 
0 0.375 0 
0.125 0.4375 0 
0.0625 0.5 0 
0 0.4375 0 
0.0625 0.375 0 
0.125 0.25 0 
0.125 0.375 0 
0 0.375 0 
0 0.25 0 
0.125 0.3125 0 
0.0625 0.375 0 
0 0.3125 0 
0.0625 0.25 0 
0.25 0 0 
0.25 0.125 0 
0.125 0.125 0 
0.125 0 0 
0.25 0.0625 0 
0.1875 0.125 0 
0.125 0.0625 0 
0.1875 0 0 
0.25 0.125 0 
0.25 0.25 0 
0.125 0.25 0 
0.125 0.125 0 
0.25 0.1875 0 
0.1875 0.25 0 
0.125 0.1875 0 
0.1875 0.125 0 
0.125 0.125 0 
0.125 0.25 0 
0 0.25 0 
0 0.125 0 
0.125 0.1875 0 
0.0625 0.25 0 
0 0.1875 0 
0.0625 0.125 0 
0.125 0 0 
0.125 0.125 0 
0 0.125 0 
0 0 0 
0.125 0.0625 0 
0.0625 0.125 0 
0 0.0625 0 
0.0625 0 0 
1 0 0 
1 0.125 0 
0.875 0.125 0 
0.875 0 0 
1 0.0625 0 
0.9375 0.125 0 
0.875 0.0625 0 
0.9375 0 0 
1 0.125 0 
1 0.25 0 
0.875 0.25 0 
0.875 0.125 0 
1 0.1875 0 
0.9375 0.25 0 
0.875 0.1875 0 
0.9375 0.125 0 
0.875 0.125 0 
0.875 0.25 0 
0.75 0.25 0 
0.75 0.125 0 
0.875 0.1875 0 
0.8125 0.25 0 
0.75 0.1875 0 
0.8125 0.125 0 
0.875 0 0 
0.875 0.125 0 
0.75 0.125 0 
0.75 0 0 
0.875 0.0625 0 
0.8125 0.125 0 
0.75 0.0625 0 
0.8125 0 0 
1 0.25 0 
1 0.375 0 
0.875 0.375 0 
0.875 0.25 0 
1 0.3125 0 
0.9375 0.375 0 
0.875 0.3125 0 
0.9375 0.25 0 
1 0.375 0 
1 0.5 0 
0.875 0.5 0 
0.875 0.375 0 
1 0.4375 0 
0.9375 0.5 0 
0.875 0.4375 0 
0.9375 0.375 0 
0.875 0.375 0 
0.875 0.5 0 
0.75 0.5 0 
0.75 0.375 0 
0.875 0.4375 0 
0.8125 0.5 0 
0.75 0.4375 0 
0.8125 0.375 0 
0.875 0.25 0 
0.875 0.375 0 
0.75 0.375 0 
0.75 0.25 0 
0.875 0.3125 0 
0.8125 0.375 0 
0.75 0.3125 0 
0.8125 0.25 0 
0.75 0.25 0 
0.75 0.375 0 
0.625 0.375 0 
0.625 0.25 0 
0.75 0.3125 0 
0.6875 0.375 0 
0.625 0.3125 0 
0.6875 0.25 0 
0.75 0.375 0 
0.75 0.5 0 
0.625 0.5 0 
0.625 0.375 0 
0.75 0.4375 0 
0.6875 0.5 0 
0.625 0.4375 0 
0.6875 0.375 0 
0.625 0.375 0 
0.625 0.5 0 
0.5 0.5 0 
0.5 0.375 0 
0.625 0.4375 0 
0.5625 0.5 0 
0.5 0.4375 0 
0.5625 0.375 0 
0.625 0.25 0 
0.625 0.375 0 
0.5 0.375 0 
0.5 0.25 0 
0.625 0.3125 0 
0.5625 0.375 0 
0.5 0.3125 0 
0.5625 0.25 0 
0.75 0 0 
0.75 0.125 0 
0.625 0.125 0 
0.625 0 0 
0.75 0.0625 0 
0.6875 0.125 0 
0.625 0.0625 0 
0.6875 0 0 
0.75 0.125 0 
0.75 0.25 0 
0.625 0.25 0 
0.625 0.125 0 
0.75 0.1875 0 
0.6875 0.25 0 
0.625 0.1875 0 
0.6875 0.125 0 
0.625 0.125 0 
0.625 0.25 0 
0.5 0.25 0 
0.5 0.125 0 
0.625 0.1875 0 
0.5625 0.25 0 
0.5 0.1875 0 
0.5625 0.125 0 
0.625 0 0 
0.625 0.125 0 
0.5 0.125 0 
0.5 0 0 
0.625 0.0625 0 
0.5625 0.125 0 
0.5 0.0625 0 
0.5625 0 0 
CELLS 64 576
8 0 1 2 3 4 5 6 7
8 8 9 10 11 12 13 14 15
8 16 17 18 19 20 21 22 23
8 24 25 26 27 28 29 30 31
8 32 33 34 35 36 37 38 39
8 40 41 42 43 44 45 46 47
8 48 49 50 51 52 53 54 55
8 56 57 58 59 60 61 62 63
8 64 65 66 67 68 69 70 71
8 72 73 74 75 76 77 78 79
8 80 81 82 83 84 85 86 87
8 88 89 90 91 92 93 94 95
8 96 97 98 99 100 101 102 103
8 104 105 106 107 108 109 110 111
8 112 113 114 115 116 117 118 119
8 120 121 122 123 124 125 126 127
8 128 129 130 131 132 133 134 135
8 136 137 138 139 140 141 142 143
8 144 145 146 147 148 149 150 151
8 152 153 154 155 156 157 158 159
8 160 161 162 163 164 165 166 167
8 168 169 170 171 172 173 174 175
8 176 177 178 179 180 181 182 183
8 184 185 186 187 188 189 190 191
8 192 193 194 195 196 197 198 199
8 200 201 202 203 204 205 206 207
8 208 209 210 211 212 213 214 215
8 216 217 218 219 220 221 222 223
8 224 225 226 227 228 229 230 231
8 232 233 234 235 236 237 238 239
8 240 241 242 243 244 245 246 247
8 248 249 250 251 252 253 254 255
8 256 257 258 259 260 261 262 263
8 264 265 266 267 268 269 270 271
8 272 273 274 275 276 277 278 279
8 280 281 282 283 284 285 286 287
8 288 289 290 291 292 293 294 295
8 296 297 298 299 300 301 302 303
8 304 305 306 307 308 309 310 311
8 312 313 314 315 316 317 318 319
8 320 321 322 323 324 325 326 327
8 328 329 330 331 332 333 334 335
8 336 337 338 339 340 341 342 343
8 344 345 346 347 348 349 350 351
8 352 353 354 355 356 357 358 359
8 360 361 362 363 364 365 366 367
8 368 369 370 371 372 373 374 375
8 376 377 378 379 380 381 382 383
8 384 385 386 387 388 389 390 391
8 392 393 394 395 396 397 398 399
8 400 401 402 403 404 405 406 407
8 408 409 410 411 412 413 414 415
8 416 417 418 419 420 421 422 423
8 424 425 426 427 428 429 430 431
8 432 433 434 435 436 437 438 439
8 440 441 442 443 444 445 446 447
8 448 449 450 451 452 453 454 455
8 456 457 458 459 460 461 462 463
8 464 465 466 467 468 469 470 471
8 472 473 474 475 476 477 478 479
8 480 481 482 483 484 485 486 487
8 488 489 490 491 492 493 494 495
8 496 497 498 499 500 501 502 503
8 504 505 506 507 508 509 510 511

CELL_TYPES 64
23
23
23
23
23
23
23
23
23
23
23
23
23
23
23
23
23
23
23
23
23
23
23
23
23
23
23
23
23
23
23
23
23
23
23
23
23
23
23
23
23
23
23
23
23
23
23
23
23
23
23
23
23
23
23
23
23
23
23
23
23
23
23
23

CELL_DATA 64
FIELD FieldData 2
material 1 64 int
1
1
1
1
1
1
1
1
1
1
1
1
1
1
1
1
1
1
1
1
1
1
1
1
1
1
1
1
1
1
1
1
1
1
1
1
1
1
1
1
1
1
1
1
1
1
1
1
1
1
1
1
1
1
1
1
1
1
1
1
1
1
1
1
elindex 1 64 int
33
34
35
36
37
38
39
40
41
42
43
44
45
46
47
48
49
50
51
52
53
54
55
56
57
58
59
60
61
62
63
64
65
66
67
68
69
70
71
72
73
74
75
76
77
78
79
80
81
82
83
84
85
86
87
88
89
90
91
92
93
94
95
96
POINT_DATA 512
SCALARS Sol float
LOOKUP_TABLE default
0.0632771 
0.0593292 
0.0556283 
0.0593292 
0.0613031 
0.0574787 
0.0574787 
0.0613031 
0.0593292 
0.0474797 
0.0445199 
0.0556283 
0.0534044 
0.0459998 
0.0500741 
0.0574787 
0.0556283 
0.0445199 
0.0356349 
0.0445199 
0.0500741 
0.0400774 
0.0400774 
0.0500741 
0.0593292 
0.0556283 
0.0445199 
0.0474797 
0.0574787 
0.0500741 
0.0459998 
0.0534044 
0.0474797 
0.0277119 
0.0259864 
0.0445199 
0.0375958 
0.0268491 
0.0352531 
0.0459998 
0.0277119 
2.53552e-13 
2.37796e-13 
0.0259864 
0.013856 
2.45674e-13 
0.0129932 
0.0268491 
0.0259864 
2.37796e-13 
1.90462e-13 
0.0208062 
0.0129932 
2.14129e-13 
0.0104031 
0.0233963 
0.0445199 
0.0259864 
0.0208062 
0.0356349 
0.0352531 
0.0233963 
0.0282205 
0.0400774 
0.0356349 
0.0208062 
0.0121584 
0.0208062 
0.0282205 
0.0164823 
0.0164823 
0.0282205 
0.0208062 
1.90462e-13 
1.11539e-13 
0.0121584 
0.0104031 
1.51001e-13 
0.00607918 
0.0164823 
0.0121584 
1.11539e-13 
1.87925e-16 
1.11539e-13 
0.00607918 
5.58637e-14 
5.58637e-14 
0.00607918 
0.0208062 
0.0121584 
1.11539e-13 
1.90462e-13 
0.0164823 
0.00607918 
1.51001e-13 
0.0104031 
0.0474797 
0.0445199 
0.0259864 
0.0277119 
0.0459998 
0.0352531 
0.0268491 
0.0375958 
0.0445199 
0.0356349 
0.0208062 
0.0259864 
0.0400774 
0.0282205 
0.0233963 
0.0352531 
0.0259864 
0.0208062 
1.90462e-13 
2.37796e-13 
0.0233963 
0.0104031 
2.14129e-13 
0.0129932 
0.0277119 
0.0259864 
2.37796e-13 
2.53551e-13 
0.0268491 
0.0129932 
2.45673e-13 
0.013856 
2.53552e-13 
0.0277119 
0.0259864 
2.37796e-13 
0.013856 
0.0268491 
0.0129932 
2.45674e-13 
0.0277119 
0.0474797 
0.0445199 
0.0259864 
0.0375958 
0.0459998 
0.0352531 
0.0268491 
0.0259864 
0.0445199 
0.0356349 
0.0208062 
0.0352531 
0.0400774 
0.0282205 
0.0233963 
2.37796e-13 
0.0259864 
0.0208062 
1.90462e-13 
0.0129932 
0.0233963 
0.0104031 
2.14129e-13 
0.0474797 
0.0593292 
0.0556283 
0.0445199 
0.0534044 
0.0574787 
0.0500741 
0.0459998 
0.0593292 
0.0632771 
0.0593292 
0.0556283 
0.0613031 
0.0613031 
0.0574787 
0.0574787 
0.0556283 
0.0593292 
0.0474797 
0.0445199 
0.0574787 
0.0534044 
0.0459998 
0.0500741 
0.0445199 
0.0556283 
0.0445199 
0.0356349 
0.0500741 
0.0500741 
0.0400774 
0.0400774 
0.0356349 
0.0445199 
0.0259864 
0.0208062 
0.0400774 
0.0352531 
0.0233963 
0.0282205 
0.0445199 
0.0474797 
0.0277119 
0.0259864 
0.0459998 
0.0375958 
0.0268491 
0.0352531 
0.0259864 
0.0277119 
2.53552e-13 
2.37796e-13 
0.0268491 
0.013856 
2.45674e-13 
0.0129932 
0.0208062 
0.0259864 
2.37796e-13 
1.90462e-13 
0.0233963 
0.0129932 
2.14129e-13 
0.0104031 
1.90462e-13 
0.0208062 
0.0121584 
1.11539e-13 
0.0104031 
0.0164823 
0.00607918 
1.51001e-13 
0.0208062 
0.0356349 
0.0208062 
0.0121584 
0.0282205 
0.0282205 
0.0164823 
0.0164823 
0.0121584 
0.0208062 
1.90462e-13 
1.11539e-13 
0.0164823 
0.0104031 
1.51001e-13 
0.00607918 
1.11539e-13 
0.0121584 
1.11539e-13 
1.8793e-16 
0.00607918 
0.00607918 
5.58637e-14 
5.58637e-14 
2.53551e-13 
0.0277119 
0.0259864 
2.37799e-13 
0.013856 
0.0268491 
0.0129932 
2.45675e-13 
0.0277119 
0.0474797 
0.0445199 
0.0259864 
0.0375958 
0.0459998 
0.0352531 
0.0268491 
0.0259864 
0.0445199 
0.0356349 
0.0208062 
0.0352531 
0.0400774 
0.0282205 
0.0233963 
2.37799e-13 
0.0259864 
0.0208062 
1.90449e-13 
0.0129932 
0.0233963 
0.0104031 
2.14124e-13 
0.0474797 
0.0593292 
0.0556283 
0.0445199 
0.0534044 
0.0574787 
0.0500741 
0.0459998 
0.0593292 
0.0632771 
0.0593292 
0.0556283 
0.0613031 
0.0613031 
0.0574787 
0.0574787 
0.0556283 
0.0593292 
0.0474797 
0.0445199 
0.0574787 
0.0534044 
0.0459998 
0.0500741 
0.0445199 
0.0556283 
0.0445199 
0.0356349 
0.0500741 
0.0500741 
0.0400774 
0.0400774 
0.0356349 
0.0445199 
0.0259864 
0.0208062 
0.0400774 
0.0352531 
0.0233963 
0.0282205 
0.0445199 
0.0474797 
0.0277119 
0.0259864 
0.0459998 
0.0375958 
0.0268491 
0.0352531 
0.0259864 
0.0277119 
2.53551e-13 
2.37799e-13 
0.0268491 
0.013856 
2.45675e-13 
0.0129932 
0.0208062 
0.0259864 
2.37799e-13 
1.90449e-13 
0.0233963 
0.0129932 
2.14124e-13 
0.0104031 
1.90449e-13 
0.0208062 
0.0121584 
1.11586e-13 
0.0104031 
0.0164823 
0.00607918 
1.51018e-13 
0.0208062 
0.0356349 
0.0208062 
0.0121584 
0.0282205 
0.0282205 
0.0164823 
0.0164823 
0.0121584 
0.0208062 
1.90449e-13 
1.11586e-13 
0.0164823 
0.0104031 
1.51018e-13 
0.00607918 
1.11586e-13 
0.0121584 
1.11586e-13 
1.26497e-17 
0.00607918 
0.00607918 
5.57995e-14 
5.57995e-14 
1.87925e-16 
1.11539e-13 
0.0121584 
1.11539e-13 
5.58637e-14 
0.00607918 
0.00607918 
5.58637e-14 
1.11539e-13 
1.90462e-13 
0.0208062 
0.0121584 
1.51001e-13 
0.0104031 
0.0164823 
0.00607918 
0.0121584 
0.0208062 
0.0356349 
0.0208062 
0.0164823 
0.0282205 
0.0282205 
0.0164823 
1.11539e-13 
0.0121584 
0.0208062 
1.90462e-13 
0.00607918 
0.0164823 
0.0104031 
1.51001e-13 
1.90462e-13 
2.37796e-13 
0.0259864 
0.0208062 
2.14129e-13 
0.0129932 
0.0233963 
0.0104031 
2.37796e-13 
2.53552e-13 
0.0277119 
0.0259864 
2.45674e-13 
0.013856 
0.0268491 
0.0129932 
0.0259864 
0.0277119 
0.0474797 
0.0445199 
0.0268491 
0.0375958 
0.0459998 
0.0352531 
0.0208062 
0.0259864 
0.0445199 
0.0356349 
0.0233963 
0.0352531 
0.0400774 
0.0282205 
0.0356349 
0.0445199 
0.0556283 
0.0445199 
0.0400774 
0.0500741 
0.0500741 
0.0400774 
0.0445199 
0.0474797 
0.0593292 
0.0556283 
0.0459998 
0.0534044 
0.0574787 
0.0500741 
0.0556283 
0.0593292 
0.0632771 
0.0593292 
0.0574787 
0.0613031 
0.0613031 
0.0574787 
0.0445199 
0.0556283 
0.0593292 
0.0474797 
0.0500741 
0.0574787 
0.0534044 
0.0459998 
1.90462e-13 
0.0208062 
0.0259864 
2.37796e-13 
0.0104031 
0.0233963 
0.0129932 
2.14129e-13 
0.0208062 
0.0356349 
0.0445199 
0.0259864 
0.0282205 
0.0400774 
0.0352531 
0.0233963 
0.0259864 
0.0445199 
0.0474797 
0.0277119 
0.0352531 
0.0459998 
0.0375958 
0.0268491 
2.37796e-13 
0.0259864 
0.0277119 
2.53551e-13 
0.0129932 
0.0268491 
0.013856 
2.45673e-13 
SCALARS Force float
LOOKUP_TABLE default
1 
0.96875 
0.9375 
0.96875 
0.992187 
0.960937 
0.960937 
0.992188 
0.96875 
0.875 
0.84375 
0.9375 
0.929687 
0.867187 
0.898437 
0.960937 
0.9375 
0.84375 
0.75 
0.84375 
0.898437 
0.804687 
0.804687 
0.898437 
0.96875 
0.9375 
0.84375 
0.875 
0.960937 
0.898437 
0.867187 
0.929688 
0.875 
0.71875 
0.6875 
0.84375 
0.804687 
0.710938 
0.773438 
0.867187 
0.71875 
0.5 
0.46875 
0.6875 
0.617187 
0.492188 
0.585938 
0.710938 
0.6875 
0.46875 
0.375 
0.59375 
0.585938 
0.429688 
0.492188 
0.648438 
0.84375 
0.6875 
0.59375 
0.75 
0.773438 
0.648438 
0.679688 
0.804687 
0.75 
0.59375 
0.4375 
0.59375 
0.679688 
0.523438 
0.523437 
0.679687 
0.59375 
0.375 
0.21875 
0.4375 
0.492188 
0.304688 
0.335938 
0.523438 
0.4375 
0.21875 
0 
0.21875 
0.335938 
0.117188 
0.117187 
0.335937 
0.59375 
0.4375 
0.21875 
0.375 
0.523437 
0.335937 
0.304687 
0.492187 
0.875 
0.84375 
0.6875 
0.71875 
0.867187 
0.773437 
0.710937 
0.804688 
0.84375 
0.75 
0.59375 
0.6875 
0.804687 
0.679687 
0.648437 
0.773437 
0.6875 
0.59375 
0.375 
0.46875 
0.648437 
0.492187 
0.429687 
0.585937 
0.71875 
0.6875 
0.46875 
0.5 
0.710937 
0.585937 
0.492187 
0.617188 
0.5 
0.71875 
0.6875 
0.46875 
0.617187 
0.710937 
0.585937 
0.492187 
0.71875 
0.875 
0.84375 
0.6875 
0.804687 
0.867187 
0.773437 
0.710937 
0.6875 
0.84375 
0.75 
0.59375 
0.773437 
0.804687 
0.679687 
0.648437 
0.46875 
0.6875 
0.59375 
0.375 
0.585937 
0.648437 
0.492187 
0.429687 
0.875 
0.96875 
0.9375 
0.84375 
0.929687 
0.960937 
0.898437 
0.867187 
0.96875 
1 
0.96875 
0.9375 
0.992187 
0.992187 
0.960937 
0.960937 
0.9375 
0.96875 
0.875 
0.84375 
0.960937 
0.929687 
0.867187 
0.898437 
0.84375 
0.9375 
0.84375 
0.75 
0.898437 
0.898437 
0.804687 
0.804687 
0.75 
0.84375 
0.6875 
0.59375 
0.804687 
0.773437 
0.648437 
0.679687 
0.84375 
0.875 
0.71875 
0.6875 
0.867187 
0.804687 
0.710937 
0.773437 
0.6875 
0.71875 
0.5 
0.46875 
0.710937 
0.617187 
0.492187 
0.585937 
0.59375 
0.6875 
0.46875 
0.375 
0.648437 
0.585937 
0.429687 
0.492187 
0.375 
0.59375 
0.4375 
0.21875 
0.492187 
0.523437 
0.335937 
0.304687 
0.59375 
0.75 
0.59375 
0.4375 
0.679687 
0.679687 
0.523437 
0.523437 
0.4375 
0.59375 
0.375 
0.21875 
0.523437 
0.492187 
0.304687 
0.335937 
0.21875 
0.4375 
0.21875 
0 
0.335937 
0.335937 
0.117187 
0.117187 
0.5 
0.71875 
0.6875 
0.46875 
0.617188 
0.710938 
0.585937 
0.492187 
0.71875 
0.875 
0.84375 
0.6875 
0.804688 
0.867188 
0.773438 
0.710938 
0.6875 
0.84375 
0.75 
0.59375 
0.773438 
0.804688 
0.679688 
0.648438 
0.46875 
0.6875 
0.59375 
0.375 
0.585937 
0.648438 
0.492187 
0.429687 
0.875 
0.96875 
0.9375 
0.84375 
0.929688 
0.960938 
0.898438 
0.867188 
0.96875 
1 
0.96875 
0.9375 
0.992188 
0.992188 
0.960938 
0.960938 
0.9375 
0.96875 
0.875 
0.84375 
0.960938 
0.929688 
0.867188 
0.898438 
0.84375 
0.9375 
0.84375 
0.75 
0.898438 
0.898438 
0.804688 
0.804688 
0.75 
0.84375 
0.6875 
0.59375 
0.804688 
0.773438 
0.648438 
0.679688 
0.84375 
0.875 
0.71875 
0.6875 
0.867188 
0.804688 
0.710938 
0.773438 
0.6875 
0.71875 
0.5 
0.46875 
0.710938 
0.617188 
0.492188 
0.585938 
0.59375 
0.6875 
0.46875 
0.375 
0.648438 
0.585938 
0.429688 
0.492188 
0.375 
0.59375 
0.4375 
0.21875 
0.492187 
0.523438 
0.335938 
0.304687 
0.59375 
0.75 
0.59375 
0.4375 
0.679688 
0.679688 
0.523438 
0.523438 
0.4375 
0.59375 
0.375 
0.21875 
0.523438 
0.492188 
0.304688 
0.335938 
0.21875 
0.4375 
0.21875 
0 
0.335938 
0.335938 
0.117188 
0.117187 
0 
0.21875 
0.4375 
0.21875 
0.117188 
0.335938 
0.335938 
0.117188 
0.21875 
0.375 
0.59375 
0.4375 
0.304688 
0.492188 
0.523438 
0.335938 
0.4375 
0.59375 
0.75 
0.59375 
0.523438 
0.679688 
0.679688 
0.523438 
0.21875 
0.4375 
0.59375 
0.375 
0.335938 
0.523438 
0.492188 
0.304688 
0.375 
0.46875 
0.6875 
0.59375 
0.429688 
0.585938 
0.648438 
0.492188 
0.46875 
0.5 
0.71875 
0.6875 
0.492188 
0.617187 
0.710938 
0.585938 
0.6875 
0.71875 
0.875 
0.84375 
0.710938 
0.804687 
0.867188 
0.773438 
0.59375 
0.6875 
0.84375 
0.75 
0.648438 
0.773438 
0.804688 
0.679688 
0.75 
0.84375 
0.9375 
0.84375 
0.804688 
0.898438 
0.898438 
0.804688 
0.84375 
0.875 
0.96875 
0.9375 
0.867188 
0.929687 
0.960938 
0.898438 
0.9375 
0.96875 
1 
0.96875 
0.960938 
0.992187 
0.992188 
0.960938 
0.84375 
0.9375 
0.96875 
0.875 
0.898438 
0.960938 
0.929688 
0.867188 
0.375 
0.59375 
0.6875 
0.46875 
0.492188 
0.648438 
0.585938 
0.429688 
0.59375 
0.75 
0.84375 
0.6875 
0.679688 
0.804688 
0.773438 
0.648438 
0.6875 
0.84375 
0.875 
0.71875 
0.773438 
0.867188 
0.804688 
0.710938 
0.46875 
0.6875 
0.71875 
0.5 
0.585938 
0.710938 
0.617188 
0.492188 
SCALARS SolExact float
LOOKUP_TABLE default
0.0625 
0.0585937 
0.0549316 
0.0585938 
0.0615234 
0.0576782 
0.0576782 
0.0615234 
0.0585937 
0.046875 
0.0439453 
0.0549316 
0.0537109 
0.0461426 
0.050354 
0.0576782 
0.0549316 
0.0439453 
0.0351562 
0.0439453 
0.050354 
0.0402832 
0.0402832 
0.050354 
0.0585938 
0.0549316 
0.0439453 
0.046875 
0.0576782 
0.050354 
0.0461426 
0.0537109 
0.046875 
0.0273437 
0.0256348 
0.0439453 
0.0380859 
0.0269165 
0.0357056 
0.0461426 
0.0273437 
0 
0 
0.0256348 
0.0146484 
0 
0.0137329 
0.0269165 
0.0256348 
0 
0 
0.0205078 
0.0137329 
0 
0.0109863 
0.0234985 
0.0439453 
0.0256348 
0.0205078 
0.0351562 
0.0357056 
0.0234985 
0.0285645 
0.0402832 
0.0351562 
0.0205078 
0.0119629 
0.0205078 
0.0285645 
0.0166626 
0.0166626 
0.0285645 
0.0205078 
0 
0 
0.0119629 
0.0109863 
0 
0.00640869 
0.0166626 
0.0119629 
0 
0 
0 
0.00640869 
0 
0 
0.00640869 
0.0205078 
0.0119629 
0 
0 
0.0166626 
0.00640869 
0 
0.0109863 
0.046875 
0.0439453 
0.0256348 
0.0273438 
0.0461426 
0.0357056 
0.0269165 
0.0380859 
0.0439453 
0.0351562 
0.0205078 
0.0256348 
0.0402832 
0.0285645 
0.0234985 
0.0357056 
0.0256348 
0.0205078 
0 
0 
0.0234985 
0.0109863 
0 
0.0137329 
0.0273438 
0.0256348 
0 
0 
0.0269165 
0.0137329 
0 
0.0146484 
0 
0.0273437 
0.0256348 
0 
0.0146484 
0.0269165 
0.0137329 
0 
0.0273437 
0.046875 
0.0439453 
0.0256348 
0.0380859 
0.0461426 
0.0357056 
0.0269165 
0.0256348 
0.0439453 
0.0351562 
0.0205078 
0.0357056 
0.0402832 
0.0285645 
0.0234985 
0 
0.0256348 
0.0205078 
0 
0.0137329 
0.0234985 
0.0109863 
0 
0.046875 
0.0585937 
0.0549316 
0.0439453 
0.0537109 
0.0576782 
0.050354 
0.0461426 
0.0585937 
0.0625 
0.0585937 
0.0549316 
0.0615234 
0.0615234 
0.0576782 
0.0576782 
0.0549316 
0.0585937 
0.046875 
0.0439453 
0.0576782 
0.0537109 
0.0461426 
0.050354 
0.0439453 
0.0549316 
0.0439453 
0.0351562 
0.050354 
0.050354 
0.0402832 
0.0402832 
0.0351562 
0.0439453 
0.0256348 
0.0205078 
0.0402832 
0.0357056 
0.0234985 
0.0285645 
0.0439453 
0.046875 
0.0273437 
0.0256348 
0.0461426 
0.0380859 
0.0269165 
0.0357056 
0.0256348 
0.0273437 
0 
0 
0.0269165 
0.0146484 
0 
0.0137329 
0.0205078 
0.0256348 
0 
0 
0.0234985 
0.0137329 
0 
0.0109863 
0 
0.0205078 
0.0119629 
0 
0.0109863 
0.0166626 
0.00640869 
0 
0.0205078 
0.0351562 
0.0205078 
0.0119629 
0.0285645 
0.0285645 
0.0166626 
0.0166626 
0.0119629 
0.0205078 
0 
0 
0.0166626 
0.0109863 
0 
0.00640869 
0 
0.0119629 
0 
0 
0.00640869 
0.00640869 
0 
0 
0 
0.0273438 
0.0256348 
0 
0.0146484 
0.0269165 
0.0137329 
0 
0.0273438 
0.046875 
0.0439453 
0.0256348 
0.0380859 
0.0461426 
0.0357056 
0.0269165 
0.0256348 
0.0439453 
0.0351563 
0.0205078 
0.0357056 
0.0402832 
0.0285645 
0.0234985 
0 
0.0256348 
0.0205078 
0 
0.0137329 
0.0234985 
0.0109863 
0 
0.046875 
0.0585938 
0.0549316 
0.0439453 
0.0537109 
0.0576782 
0.050354 
0.0461426 
0.0585938 
0.0625 
0.0585938 
0.0549316 
0.0615234 
0.0615234 
0.0576782 
0.0576782 
0.0549316 
0.0585938 
0.046875 
0.0439453 
0.0576782 
0.0537109 
0.0461426 
0.050354 
0.0439453 
0.0549316 
0.0439453 
0.0351563 
0.050354 
0.050354 
0.0402832 
0.0402832 
0.0351563 
0.0439453 
0.0256348 
0.0205078 
0.0402832 
0.0357056 
0.0234985 
0.0285645 
0.0439453 
0.046875 
0.0273438 
0.0256348 
0.0461426 
0.0380859 
0.0269165 
0.0357056 
0.0256348 
0.0273438 
0 
0 
0.0269165 
0.0146484 
0 
0.0137329 
0.0205078 
0.0256348 
0 
0 
0.0234985 
0.0137329 
0 
0.0109863 
0 
0.0205078 
0.0119629 
0 
0.0109863 
0.0166626 
0.00640869 
0 
0.0205078 
0.0351563 
0.0205078 
0.0119629 
0.0285645 
0.0285645 
0.0166626 
0.0166626 
0.0119629 
0.0205078 
0 
0 
0.0166626 
0.0109863 
0 
0.00640869 
0 
0.0119629 
0 
0 
0.00640869 
0.00640869 
0 
0 
0 
0 
0.0119629 
0 
0 
0.00640869 
0.00640869 
0 
0 
0 
0.0205078 
0.0119629 
0 
0.0109863 
0.0166626 
0.00640869 
0.0119629 
0.0205078 
0.0351563 
0.0205078 
0.0166626 
0.0285645 
0.0285645 
0.0166626 
0 
0.0119629 
0.0205078 
0 
0.00640869 
0.0166626 
0.0109863 
0 
0 
0 
0.0256348 
0.0205078 
0 
0.0137329 
0.0234985 
0.0109863 
0 
0 
0.0273437 
0.0256348 
0 
0.0146484 
0.0269165 
0.0137329 
0.0256348 
0.0273437 
0.046875 
0.0439453 
0.0269165 
0.0380859 
0.0461426 
0.0357056 
0.0205078 
0.0256348 
0.0439453 
0.0351563 
0.0234985 
0.0357056 
0.0402832 
0.0285645 
0.0351563 
0.0439453 
0.0549316 
0.0439453 
0.0402832 
0.050354 
0.050354 
0.0402832 
0.0439453 
0.046875 
0.0585937 
0.0549316 
0.0461426 
0.0537109 
0.0576782 
0.050354 
0.0549316 
0.0585937 
0.0625 
0.0585938 
0.0576782 
0.0615234 
0.0615234 
0.0576782 
0.0439453 
0.0549316 
0.0585938 
0.046875 
0.050354 
0.0576782 
0.0537109 
0.0461426 
0 
0.0205078 
0.0256348 
0 
0.0109863 
0.0234985 
0.0137329 
0 
0.0205078 
0.0351563 
0.0439453 
0.0256348 
0.0285645 
0.0402832 
0.0357056 
0.0234985 
0.0256348 
0.0439453 
0.046875 
0.0273438 
0.0357056 
0.0461426 
0.0380859 
0.0269165 
0 
0.0256348 
0.0273438 
0 
0.0137329 
0.0269165 
0.0146484 
0 
VECTORS DSol float
0.0315833 -0.0315833 0 
0.0296068 -0.0315833 0 
0.0296068 -0.0296068 0 
0.0315833 -0.0296068 0 
0.0305951 -0.0315833 0 
0.0296068 -0.0305951 0 
0.0305951 -0.0296068 0 
0.0315833 -0.0305951 0 
0.0296068 -0.0947958 0 
0.0236786 -0.0947958 0 
0.0236786 -0.0888676 0 
0.0296068 -0.0888676 0 
0.0266427 -0.0947958 0 
0.0236786 -0.0918317 0 
0.0266427 -0.0888676 0 
0.0296068 -0.0918317 0 
0.0888676 -0.0888676 0 
0.0710795 -0.0888676 0 
0.0710795 -0.0710795 0 
0.0888676 -0.0710795 0 
0.0799735 -0.0888676 0 
0.0710795 -0.0799735 0 
0.0799735 -0.0710795 0 
0.0888676 -0.0799735 0 
0.0947958 -0.0296068 0 
0.0888676 -0.0296068 0 
0.0888676 -0.0236786 0 
0.0947958 -0.0236786 0 
0.0918317 -0.0296068 0 
0.0888676 -0.0266427 0 
0.0918317 -0.0236786 0 
0.0947958 -0.0266427 0 
0.0236786 -0.158142 0 
0.0138044 -0.158142 0 
0.0138044 -0.148268 0 
0.0236786 -0.148268 0 
0.0187415 -0.158142 0 
0.0138044 -0.153205 0 
0.0187415 -0.148268 0 
0.0236786 -0.153205 0 
0.0138044 -0.221695 0 
1.26048e-13 -0.221695 0 
1.26048e-13 -0.207891 0 
0.0138044 -0.207891 0 
0.0069022 -0.221695 0 
1.26048e-13 -0.214793 0 
0.0069022 -0.207891 0 
0.0138044 -0.214793 0 
0.0414414 -0.207891 0 
3.78669e-13 -0.207891 0 
3.78669e-13 -0.166449 0 
0.0414414 -0.166449 0 
0.0207207 -0.207891 0 
3.78669e-13 -0.18717 0 
0.0207207 -0.166449 0 
0.0414414 -0.18717 0 
0.0710795 -0.148268 0 
0.0414414 -0.148268 0 
0.0414414 -0.11863 0 
0.0710795 -0.11863 0 
0.0562604 -0.148268 0 
0.0414414 -0.133449 0 
0.0562604 -0.11863 0 
0.0710795 -0.133449 0 
0.11863 -0.11863 0 
0.0691826 -0.11863 0 
0.0691826 -0.0691826 0 
0.11863 -0.0691826 0 
0.0939063 -0.11863 0 
0.0691826 -0.0939063 0 
0.0939063 -0.0691826 0 
0.11863 -0.0939063 0 
0.0691826 -0.166449 0 
6.31381e-13 -0.166449 0 
6.31381e-13 -0.0972668 0 
0.0691826 -0.0972668 0 
0.0345913 -0.166449 0 
6.31381e-13 -0.131858 0 
0.0345913 -0.0972668 0 
0.0691826 -0.131858 0 
0.0972668 -0.0972668 0 
8.90812e-13 -0.0972668 0 
8.90812e-13 -8.90812e-13 0 
0.0972668 -8.90812e-13 0 
0.0486334 -0.0972668 0 
8.90812e-13 -0.0486334 0 
0.0486334 -8.90812e-13 0 
0.0972668 -0.0486334 0 
0.166449 -0.0691826 0 
0.0972668 -0.0691826 0 
0.0972668 -6.3138e-13 0 
0.166449 -6.3138e-13 0 
0.131858 -0.0691826 0 
0.0972668 -0.0345913 0 
0.131858 -6.3138e-13 0 
0.166449 -0.0345913 0 
0.158142 -0.0236786 0 
0.148268 -0.0236786 0 
0.148268 -0.0138044 0 
0.158142 -0.0138044 0 
0.153205 -0.0236786 0 
0.148268 -0.0187415 0 
0.153205 -0.0138044 0 
0.158142 -0.0187415 0 
0.148268 -0.0710795 0 
0.11863 -0.0710795 0 
0.11863 -0.0414414 0 
0.148268 -0.0414414 0 
0.133449 -0.0710795 0 
0.11863 -0.0562604 0 
0.133449 -0.0414414 0 
0.148268 -0.0562604 0 
0.207891 -0.0414414 0 
0.166449 -0.0414414 0 
0.166449 -3.78671e-13 0 
0.207891 -3.78671e-13 0 
0.18717 -0.0414414 0 
0.166449 -0.0207207 0 
0.18717 -3.78671e-13 0 
0.207891 -0.0207207 0 
0.221695 -0.0138044 0 
0.207891 -0.0138044 0 
0.207891 -1.26039e-13 0 
0.221695 -1.26039e-13 0 
0.214793 -0.0138044 0 
0.207891 -0.0069022 0 
0.214793 -1.26039e-13 0 
0.221695 -0.0069022 0 
-1.26048e-13 -0.221695 0 
-0.0138044 -0.221695 0 
-0.0138044 -0.207891 0 
-1.26048e-13 -0.207891 0 
-0.0069022 -0.221695 0 
-0.0138044 -0.214793 0 
-0.0069022 -0.207891 0 
-1.26048e-13 -0.214793 0 
-0.0138044 -0.158142 0 
-0.0236786 -0.158142 0 
-0.0236786 -0.148268 0 
-0.0138044 -0.148268 0 
-0.0187415 -0.158142 0 
-0.0236786 -0.153205 0 
-0.0187415 -0.148268 0 
-0.0138044 -0.153205 0 
-0.0414414 -0.148268 0 
-0.0710795 -0.148268 0 
-0.0710795 -0.11863 0 
-0.0414414 -0.11863 0 
-0.0562604 -0.148268 0 
-0.0710795 -0.133449 0 
-0.0562604 -0.11863 0 
-0.0414414 -0.133449 0 
-3.78669e-13 -0.207891 0 
-0.0414414 -0.207891 0 
-0.0414414 -0.166449 0 
-3.78669e-13 -0.166449 0 
-0.0207207 -0.207891 0 
-0.0414414 -0.18717 0 
-0.0207207 -0.166449 0 
-3.78669e-13 -0.18717 0 
-0.0236786 -0.0947958 0 
-0.0296068 -0.0947958 0 
-0.0296068 -0.0888676 0 
-0.0236786 -0.0888676 0 
-0.0266427 -0.0947958 0 
-0.0296068 -0.0918317 0 
-0.0266427 -0.0888676 0 
-0.0236786 -0.0918317 0 
-0.0296068 -0.0315833 0 
-0.0315833 -0.0315833 0 
-0.0315833 -0.0296068 0 
-0.0296068 -0.0296068 0 
-0.0305951 -0.0315833 0 
-0.0315833 -0.0305951 0 
-0.0305951 -0.0296068 0 
-0.0296068 -0.0305951 0 
-0.0888676 -0.0296068 0 
-0.0947958 -0.0296068 0 
-0.0947958 -0.0236786 0 
-0.0888676 -0.0236786 0 
-0.0918317 -0.0296068 0 
-0.0947958 -0.0266427 0 
-0.0918317 -0.0236786 0 
-0.0888676 -0.0266427 0 
-0.0710795 -0.0888676 0 
-0.0888676 -0.0888676 0 
-0.0888676 -0.0710795 0 
-0.0710795 -0.0710795 0 
-0.0799735 -0.0888676 0 
-0.0888676 -0.0799735 0 
-0.0799735 -0.0710795 0 
-0.0710795 -0.0799735 0 