# vtk DataFile Version 3.0
TPZGeoMesh VTK Visualization
ASCII

DATASET UNSTRUCTURED_GRID
POINTS 2048 float
0.5 0.5 0 
0.5 0.5625 0 
0.4375 0.5625 0 
0.4375 0.5 0 
0.5 0.53125 0 
0.46875 0.5625 0 
0.4375 0.53125 0 
0.46875 0.5 0 
0.5 0.5625 0 
0.5 0.625 0 
0.4375 0.625 0 
0.4375 0.5625 0 
0.5 0.59375 0 
0.46875 0.625 0 
0.4375 0.59375 0 
0.46875 0.5625 0 
0.4375 0.5625 0 
0.4375 0.625 0 
0.375 0.625 0 
0.375 0.5625 0 
0.4375 0.59375 0 
0.40625 0.625 0 
0.375 0.59375 0 
0.40625 0.5625 0 
0.4375 0.5 0 
0.4375 0.5625 0 
0.375 0.5625 0 
0.375 0.5 0 
0.4375 0.53125 0 
0.40625 0.5625 0 
0.375 0.53125 0 
0.40625 0.5 0 
0.5 0.625 0 
0.5 0.6875 0 
0.4375 0.6875 0 
0.4375 0.625 0 
0.5 0.65625 0 
0.46875 0.6875 0 
0.4375 0.65625 0 
0.46875 0.625 0 
0.5 0.6875 0 
0.5 0.75 0 
0.4375 0.75 0 
0.4375 0.6875 0 
0.5 0.71875 0 
0.46875 0.75 0 
0.4375 0.71875 0 
0.46875 0.6875 0 
0.4375 0.6875 0 
0.4375 0.75 0 
0.375 0.75 0 
0.375 0.6875 0 
0.4375 0.71875 0 
0.40625 0.75 0 
0.375 0.71875 0 
0.40625 0.6875 0 
0.4375 0.625 0 
0.4375 0.6875 0 
0.375 0.6875 0 
0.375 0.625 0 
0.4375 0.65625 0 
0.40625 0.6875 0 
0.375 0.65625 0 
0.40625 0.625 0 
0.375 0.625 0 
0.375 0.6875 0 
0.3125 0.6875 0 
0.3125 0.625 0 
0.375 0.65625 0 
0.34375 0.6875 0 
0.3125 0.65625 0 
0.34375 0.625 0 
0.375 0.6875 0 
0.375 0.75 0 
0.3125 0.75 0 
0.3125 0.6875 0 
0.375 0.71875 0 
0.34375 0.75 0 
0.3125 0.71875 0 
0.34375 0.6875 0 
0.3125 0.6875 0 
0.3125 0.75 0 
0.25 0.75 0 
0.25 0.6875 0 
0.3125 0.71875 0 
0.28125 0.75 0 
0.25 0.71875 0 
0.28125 0.6875 0 
0.3125 0.625 0 
0.3125 0.6875 0 
0.25 0.6875 0 
0.25 0.625 0 
0.3125 0.65625 0 
0.28125 0.6875 0 
0.25 0.65625 0 
0.28125 0.625 0 
0.375 0.5 0 
0.375 0.5625 0 
0.3125 0.5625 0 
0.3125 0.5 0 
0.375 0.53125 0 
0.34375 0.5625 0 
0.3125 0.53125 0 
0.34375 0.5 0 
0.375 0.5625 0 
0.375 0.625 0 
0.3125 0.625 0 
0.3125 0.5625 0 
0.375 0.59375 0 
0.34375 0.625 0 
0.3125 0.59375 0 
0.34375 0.5625 0 
0.3125 0.5625 0 
0.3125 0.625 0 
0.25 0.625 0 
0.25 0.5625 0 
0.3125 0.59375 0 
0.28125 0.625 0 
0.25 0.59375 0 
0.28125 0.5625 0 
0.3125 0.5 0 
0.3125 0.5625 0 
0.25 0.5625 0 
0.25 0.5 0 
0.3125 0.53125 0 
0.28125 0.5625 0 
0.25 0.53125 0 
0.28125 0.5 0 
0.5 0.75 0 
0.5 0.8125 0 
0.4375 0.8125 0 
0.4375 0.75 0 
0.5 0.78125 0 
0.46875 0.8125 0 
0.4375 0.78125 0 
0.46875 0.75 0 
0.5 0.8125 0 
0.5 0.875 0 
0.4375 0.875 0 
0.4375 0.8125 0 
0.5 0.84375 0 
0.46875 0.875 0 
0.4375 0.84375 0 
0.46875 0.8125 0 
0.4375 0.8125 0 
0.4375 0.875 0 
0.375 0.875 0 
0.375 0.8125 0 
0.4375 0.84375 0 
0.40625 0.875 0 
0.375 0.84375 0 
0.40625 0.8125 0 
0.4375 0.75 0 
0.4375 0.8125 0 
0.375 0.8125 0 
0.375 0.75 0 
0.4375 0.78125 0 
0.40625 0.8125 0 
0.375 0.78125 0 
0.40625 0.75 0 
0.5 0.875 0 
0.5 0.9375 0 
0.4375 0.9375 0 
0.4375 0.875 0 
0.5 0.90625 0 
0.46875 0.9375 0 
0.4375 0.90625 0 
0.46875 0.875 0 
0.5 0.9375 0 
0.5 1 0 
0.4375 1 0 
0.4375 0.9375 0 
0.5 0.96875 0 
0.46875 1 0 
0.4375 0.96875 0 
0.46875 0.9375 0 
0.4375 0.9375 0 
0.4375 1 0 
0.375 1 0 
0.375 0.9375 0 
0.4375 0.96875 0 
0.40625 1 0 
0.375 0.96875 0 
0.40625 0.9375 0 
0.4375 0.875 0 
0.4375 0.9375 0 
0.375 0.9375 0 
0.375 0.875 0 
0.4375 0.90625 0 
0.40625 0.9375 0 
0.375 0.90625 0 
0.40625 0.875 0 
0.375 0.875 0 
0.375 0.9375 0 
0.3125 0.9375 0 
0.3125 0.875 0 
0.375 0.90625 0 
0.34375 0.9375 0 
0.3125 0.90625 0 
0.34375 0.875 0 
0.375 0.9375 0 
0.375 1 0 
0.3125 1 0 
0.3125 0.9375 0 
0.375 0.96875 0 
0.34375 1 0 
0.3125 0.96875 0 
0.34375 0.9375 0 
0.3125 0.9375 0 
0.3125 1 0 
0.25 1 0 
0.25 0.9375 0 
0.3125 0.96875 0 
0.28125 1 0 
0.25 0.96875 0 
0.28125 0.9375 0 
0.3125 0.875 0 
0.3125 0.9375 0 
0.25 0.9375 0 
0.25 0.875 0 
0.3125 0.90625 0 
0.28125 0.9375 0 
0.25 0.90625 0 
0.28125 0.875 0 
0.375 0.75 0 
0.375 0.8125 0 
0.3125 0.8125 0 
0.3125 0.75 0 
0.375 0.78125 0 
0.34375 0.8125 0 
0.3125 0.78125 0 
0.34375 0.75 0 
0.375 0.8125 0 
0.375 0.875 0 
0.3125 0.875 0 
0.3125 0.8125 0 
0.375 0.84375 0 
0.34375 0.875 0 
0.3125 0.84375 0 
0.34375 0.8125 0 
0.3125 0.8125 0 
0.3125 0.875 0 
0.25 0.875 0 
0.25 0.8125 0 
0.3125 0.84375 0 
0.28125 0.875 0 
0.25 0.84375 0 
0.28125 0.8125 0 
0.3125 0.75 0 
0.3125 0.8125 0 
0.25 0.8125 0 
0.25 0.75 0 
0.3125 0.78125 0 
0.28125 0.8125 0 
0.25 0.78125 0 
0.28125 0.75 0 
0.25 0.75 0 
0.25 0.8125 0 
0.1875 0.8125 0 
0.1875 0.75 0 
0.25 0.78125 0 
0.21875 0.8125 0 
0.1875 0.78125 0 
0.21875 0.75 0 
0.25 0.8125 0 
0.25 0.875 0 
0.1875 0.875 0 
0.1875 0.8125 0 
0.25 0.84375 0 
0.21875 0.875 0 
0.1875 0.84375 0 
0.21875 0.8125 0 
0.1875 0.8125 0 
0.1875 0.875 0 
0.125 0.875 0 
0.125 0.8125 0 
0.1875 0.84375 0 
0.15625 0.875 0 
0.125 0.84375 0 
0.15625 0.8125 0 
0.1875 0.75 0 
0.1875 0.8125 0 
0.125 0.8125 0 
0.125 0.75 0 
0.1875 0.78125 0 
0.15625 0.8125 0 
0.125 0.78125 0 
0.15625 0.75 0 
0.25 0.875 0 
0.25 0.9375 0 
0.1875 0.9375 0 
0.1875 0.875 0 
0.25 0.90625 0 
0.21875 0.9375 0 
0.1875 0.90625 0 
0.21875 0.875 0 
0.25 0.9375 0 
0.25 1 0 
0.1875 1 0 
0.1875 0.9375 0 
0.25 0.96875 0 
0.21875 1 0 
0.1875 0.96875 0 
0.21875 0.9375 0 
0.1875 0.9375 0 
0.1875 1 0 
0.125 1 0 
0.125 0.9375 0 
0.1875 0.96875 0 
0.15625 1 0 
0.125 0.96875 0 
0.15625 0.9375 0 
0.1875 0.875 0 
0.1875 0.9375 0 
0.125 0.9375 0 
0.125 0.875 0 
0.1875 0.90625 0 
0.15625 0.9375 0 
0.125 0.90625 0 
0.15625 0.875 0 
0.125 0.875 0 
0.125 0.9375 0 
0.0625 0.9375 0 
0.0625 0.875 0 
0.125 0.90625 0 
0.09375 0.9375 0 
0.0625 0.90625 0 
0.09375 0.875 0 
0.125 0.9375 0 
0.125 1 0 
0.0625 1 0 
0.0625 0.9375 0 
0.125 0.96875 0 
0.09375 1 0 
0.0625 0.96875 0 
0.09375 0.9375 0 
0.0625 0.9375 0 
0.0625 1 0 
0 1 0 
0 0.9375 0 
0.0625 0.96875 0 
0.03125 1 0 
0 0.96875 0 
0.03125 0.9375 0 
0.0625 0.875 0 
0.0625 0.9375 0 
0 0.9375 0 
0 0.875 0 
0.0625 0.90625 0 
0.03125 0.9375 0 
0 0.90625 0 
0.03125 0.875 0 
0.125 0.75 0 
0.125 0.8125 0 
0.0625 0.8125 0 
0.0625 0.75 0 
0.125 0.78125 0 
0.09375 0.8125 0 
0.0625 0.78125 0 
0.09375 0.75 0 
0.125 0.8125 0 
0.125 0.875 0 
0.0625 0.875 0 
0.0625 0.8125 0 
0.125 0.84375 0 
0.09375 0.875 0 
0.0625 0.84375 0 
0.09375 0.8125 0 
0.0625 0.8125 0 
0.0625 0.875 0 
0 0.875 0 
0 0.8125 0 
0.0625 0.84375 0 
0.03125 0.875 0 
0 0.84375 0 
0.03125 0.8125 0 
0.0625 0.75 0 
0.0625 0.8125 0 
0 0.8125 0 
0 0.75 0 
0.0625 0.78125 0 
0.03125 0.8125 0 
0 0.78125 0 
0.03125 0.75 0 
0.25 0.5 0 
0.25 0.5625 0 
0.1875 0.5625 0 
0.1875 0.5 0 
0.25 0.53125 0 
0.21875 0.5625 0 
0.1875 0.53125 0 
0.21875 0.5 0 
0.25 0.5625 0 
0.25 0.625 0 
0.1875 0.625 0 
0.1875 0.5625 0 
0.25 0.59375 0 
0.21875 0.625 0 
0.1875 0.59375 0 
0.21875 0.5625 0 
0.1875 0.5625 0 
0.1875 0.625 0 
0.125 0.625 0 
0.125 0.5625 0 
0.1875 0.59375 0 
0.15625 0.625 0 
0.125 0.59375 0 
0.15625 0.5625 0 
0.1875 0.5 0 
0.1875 0.5625 0 
0.125 0.5625 0 
0.125 0.5 0 
0.1875 0.53125 0 
0.15625 0.5625 0 
0.125 0.53125 0 
0.15625 0.5 0 
0.25 0.625 0 
0.25 0.6875 0 
0.1875 0.6875 0 
0.1875 0.625 0 
0.25 0.65625 0 
0.21875 0.6875 0 
0.1875 0.65625 0 
0.21875 0.625 0 
0.25 0.6875 0 
0.25 0.75 0 
0.1875 0.75 0 
0.1875 0.6875 0 
0.25 0.71875 0 
0.21875 0.75 0 
0.1875 0.71875 0 
0.21875 0.6875 0 
0.1875 0.6875 0 
0.1875 0.75 0 
0.125 0.75 0 
0.125 0.6875 0 
0.1875 0.71875 0 
0.15625 0.75 0 
0.125 0.71875 0 
0.15625 0.6875 0 
0.1875 0.625 0 
0.1875 0.6875 0 
0.125 0.6875 0 
0.125 0.625 0 
0.1875 0.65625 0 
0.15625 0.6875 0 
0.125 0.65625 0 
0.15625 0.625 0 
0.125 0.625 0 
0.125 0.6875 0 
0.0625 0.6875 0 
0.0625 0.625 0 
0.125 0.65625 0 
0.09375 0.6875 0 
0.0625 0.65625 0 
0.09375 0.625 0 
0.125 0.6875 0 
0.125 0.75 0 
0.0625 0.75 0 
0.0625 0.6875 0 
0.125 0.71875 0 
0.09375 0.75 0 
0.0625 0.71875 0 
0.09375 0.6875 0 
0.0625 0.6875 0 
0.0625 0.75 0 
0 0.75 0 
0 0.6875 0 
0.0625 0.71875 0 
0.03125 0.75 0 
0 0.71875 0 
0.03125 0.6875 0 
0.0625 0.625 0 
0.0625 0.6875 0 
0 0.6875 0 
0 0.625 0 
0.0625 0.65625 0 
0.03125 0.6875 0 
0 0.65625 0 
0.03125 0.625 0 
0.125 0.5 0 
0.125 0.5625 0 
0.0625 0.5625 0 
0.0625 0.5 0 
0.125 0.53125 0 
0.09375 0.5625 0 
0.0625 0.53125 0 
0.09375 0.5 0 
0.125 0.5625 0 
0.125 0.625 0 
0.0625 0.625 0 
0.0625 0.5625 0 
0.125 0.59375 0 
0.09375 0.625 0 
0.0625 0.59375 0 
0.09375 0.5625 0 
0.0625 0.5625 0 
0.0625 0.625 0 
0 0.625 0 
0 0.5625 0 
0.0625 0.59375 0 
0.03125 0.625 0 
0 0.59375 0 
0.03125 0.5625 0 
0.0625 0.5 0 
0.0625 0.5625 0 
0 0.5625 0 
0 0.5 0 
0.0625 0.53125 0 
0.03125 0.5625 0 
0 0.53125 0 
0.03125 0.5 0 
0.5 1 0 
0.5 0.9375 0 
0.5625 0.9375 0 
0.5625 1 0 
0.5 0.96875 0 
0.53125 0.9375 0 
0.5625 0.96875 0 
0.53125 1 0 
0.5 0.9375 0 
0.5 0.875 0 
0.5625 0.875 0 
0.5625 0.9375 0 
0.5 0.90625 0 
0.53125 0.875 0 
0.5625 0.90625 0 
0.53125 0.9375 0 
0.5625 0.9375 0 
0.5625 0.875 0 
0.625 0.875 0 
0.625 0.9375 0 
0.5625 0.90625 0 
0.59375 0.875 0 
0.625 0.90625 0 
0.59375 0.9375 0 
0.5625 1 0 
0.5625 0.9375 0 
0.625 0.9375 0 
0.625 1 0 
0.5625 0.96875 0 
0.59375 0.9375 0 
0.625 0.96875 0 
0.59375 1 0 
0.5 0.875 0 
0.5 0.8125 0 
0.5625 0.8125 0 
0.5625 0.875 0 
0.5 0.84375 0 
0.53125 0.8125 0 
0.5625 0.84375 0 
0.53125 0.875 0 
0.5 0.8125 0 
0.5 0.75 0 
0.5625 0.75 0 
0.5625 0.8125 0 
0.5 0.78125 0 
0.53125 0.75 0 
0.5625 0.78125 0 
0.53125 0.8125 0 
0.5625 0.8125 0 
0.5625 0.75 0 
0.625 0.75 0 
0.625 0.8125 0 
0.5625 0.78125 0 
0.59375 0.75 0 
0.625 0.78125 0 
0.59375 0.8125 0 
0.5625 0.875 0 
0.5625 0.8125 0 
0.625 0.8125 0 
0.625 0.875 0 
0.5625 0.84375 0 
0.59375 0.8125 0 
0.625 0.84375 0 
0.59375 0.875 0 
0.625 0.875 0 
0.625 0.8125 0 
0.6875 0.8125 0 
0.6875 0.875 0 
0.625 0.84375 0 
0.65625 0.8125 0 
0.6875 0.84375 0 
0.65625 0.875 0 
0.625 0.8125 0 
0.625 0.75 0 
0.6875 0.75 0 
0.6875 0.8125 0 
0.625 0.78125 0 
0.65625 0.75 0 
0.6875 0.78125 0 
0.65625 0.8125 0 
0.6875 0.8125 0 
0.6875 0.75 0 
0.75 0.75 0 
0.75 0.8125 0 
0.6875 0.78125 0 
0.71875 0.75 0 
0.75 0.78125 0 
0.71875 0.8125 0 
0.6875 0.875 0 
0.6875 0.8125 0 
0.75 0.8125 0 
0.75 0.875 0 
0.6875 0.84375 0 
0.71875 0.8125 0 
0.75 0.84375 0 
0.71875 0.875 0 
0.625 1 0 
0.625 0.9375 0 
0.6875 0.9375 0 
0.6875 1 0 
0.625 0.96875 0 
0.65625 0.9375 0 
0.6875 0.96875 0 
0.65625 1 0 
0.625 0.9375 0 
0.625 0.875 0 
[...]
CELL_DATA 256
FIELD FieldData 2
material 1 256 int
1
1
1
1
1
1
1
1
1
1
1
1
1
1
1
1
1
1
1
1
1
1
1
1
1
1
1
1
1
1
1
1
1
1
1
1
1
1
1
1
1
1
1
1
1
1
1
1
1
1
1
1
1
1
1
1
1
1
1
1
1
1
1
1
1
1
1
1
1
1
1
1
1
1
1
1
1
1
1
1
1
1
1
1
1
1
1
1
1
1
1
1
1
1
1
1
1
1
1
1
1
1
1
1
1
1
1
1
1
1
1
1
1
1
1
1
1
1
1
1
1
1
1
1
1
1
1
1
1
1
1
1
1
1
1
1
1
1
1
1
1
1
1
1
1
1
1
1
1
1
1
1
1
1
1
1
1
1
1
1
1
1
1
1
1
1
1
1
1
1
1
1
1
1
1
1
1
1
1
1
1
1
1
1
1
1
1
1
1
1
1
1
1
1
1
1
1
1
1
1
1
1
1
1
1
1
1
1
1
1
1
1
1
1
1
1
1
1
1
1
1
1
1
1
1
1
1
1
1
1
1
1
1
1
1
1
1
1
1
1
1
1
1
1
1
1
1
1
1
1
1
1
1
1
1
1
elindex 1 256 int
65
66
67
68
69
70
71
72
73
74
75
76
77
78
79
80
81
82
83
84
85
86
87
88
89
90
91
92
93
94
95
96
97
98
99
100
101
102
103
104
105
106
107
108
109
110
111
112
113
114
115
116
117
118
119
120
121
122
123
124
125
126
127
128
129
130
131
132
133
134
135
136
137
138
139
140
141
142
143
144
145
146
147
148
149
150
151
152
153
154
155
156
157
158
159
160
161
162
163
164
165
166
167
168
169
170
171
172
173
174
175
176
177
178
179
180
181
182
183
184
185
186
187
188
189
190
191
192
193
194
195
196
197
198
199
200
201
202
203
204
205
206
207
208
209
210
211
212
213
214
215
216
217
218
219
220
221
222
223
224
225
226
227
228
229
230
231
232
233
234
235
236
237
238
239
240
241
242
243
244
245
246
247
248
249
250
251
252
253
254
255
256
257
258
259
260
261
262
263
264
265
266
267
268
269
270
271
272
273
274
275
276
277
278
279
280
281
282
283
284
285
286
287
288
289
290
291
292
293
294
295
296
297
298
299
300
301
302
303
304
305
306
307
308
309
310
311
312
313
314
315
316
317
318
319
320
POINT_DATA 2048
SCALARS Sol float
LOOKUP_TABLE default
-0.951871 
-1.32879 
-1.78458 
-1.27833 
-1.14033 
-1.55669 
-1.53146 
-1.1151 
-1.32879 
-1.51589 
-2.03582 
-1.78458 
-1.42234 
-1.77586 
-1.9102 
-1.55669 
-1.78458 
-2.03582 
-2.26791 
-1.988 
-1.9102 
-2.15187 
-2.12796 
-1.88629 
-1.27833 
-1.78458 
-1.988 
-1.424 
-1.53146 
-1.88629 
-1.706 
-1.35117 
-1.51589 
-1.50549 
-2.02178 
-2.03582 
-1.51069 
-1.76363 
-2.0288 
-1.77586 
-1.50549 
-1.32126 
-1.77424 
-2.02178 
-1.41338 
-1.54775 
-1.89801 
-1.76363 
-2.02178 
-1.77424 
-1.97656 
-2.25229 
-1.89801 
-1.8754 
-2.11443 
-2.13704 
-2.03582 
-2.02178 
-2.25229 
-2.26791 
-2.0288 
-2.13704 
-2.2601 
-2.15187 
-2.26791 
-2.25229 
-2.16333 
-2.1782 
-2.2601 
-2.20781 
-2.17077 
-2.22306 
-2.25229 
-1.97656 
-1.89863 
-2.16333 
-2.11443 
-1.9376 
-2.03098 
-2.20781 
-2.16333 
-1.89863 
-1.57161 
-1.7904 
-2.03098 
-1.73512 
-1.68101 
-1.97687 
-2.1782 
-2.16333 
-1.7904 
-1.80248 
-2.17077 
-1.97687 
-1.79644 
-1.99034 
-1.424 
-1.988 
-1.90927 
-1.36754 
-1.706 
-1.94863 
-1.63841 
-1.39577 
-1.988 
-2.26791 
-2.1782 
-1.90927 
-2.12796 
-2.22306 
-2.04374 
-1.94863 
-1.90927 
-2.1782 
-1.80248 
-1.57977 
-2.04374 
-1.99034 
-1.69113 
-1.74452 
-1.36754 
-1.90927 
-1.57977 
-1.13143 
-1.63841 
-1.74452 
-1.3556 
-1.24949 
-1.32126 
-1.01182 
-1.35858 
-1.77424 
-1.16654 
-1.1852 
-1.56641 
-1.54775 
-1.01182 
-0.641936 
-0.861787 
-1.35858 
-0.826879 
-0.751861 
-1.11018 
-1.1852 
-1.35858 
-0.861787 
-0.960089 
-1.51352 
-1.11018 
-0.910938 
-1.2368 
-1.43605 
-1.77424 
-1.35858 
-1.51352 
-1.97656 
-1.56641 
-1.43605 
-1.74504 
-1.8754 
-0.641936 
-0.282377 
-0.378975 
-0.861787 
-0.462156 
-0.330676 
-0.620381 
-0.751861 
-0.282377 
-3.58894e-12 
-4.81396e-12 
-0.378975 
-0.141188 
-4.20145e-12 
-0.189487 
-0.330676 
-0.378975 
-4.81396e-12 
-5.36346e-12 
-0.422216 
-0.189487 
-5.08871e-12 
-0.211108 
-0.400596 
-0.861787 
-0.378975 
-0.422216 
-0.960089 
-0.620381 
-0.400596 
-0.691153 
-0.910938 
-0.960089 
-0.422216 
-0.405813 
-0.922507 
-0.691153 
-0.414014 
-0.66416 
-0.941298 
-0.422216 
-5.36346e-12 
-5.15803e-12 
-0.405813 
-0.211108 
-5.26075e-12 
-0.202906 
-0.414014 
-0.405813 
-5.15803e-12 
-4.28196e-12 
-0.336405 
-0.202906 
-4.71999e-12 
-0.168202 
-0.371109 
-0.922507 
-0.405813 
-0.336405 
-0.764146 
-0.66416 
-0.371109 
-0.550276 
-0.843327 
-1.97656 
-1.51352 
-1.45401 
-1.89863 
-1.74504 
-1.48377 
-1.67632 
-1.9376 
-1.51352 
-0.960089 
-0.922507 
-1.45401 
-1.2368 
-0.941298 
-1.18826 
-1.48377 
-1.45401 
-0.922507 
-0.764146 
-1.20389 
-1.18826 
-0.843327 
-0.98402 
-1.32895 
-1.89863 
-1.45401 
-1.20389 
-1.57161 
-1.67632 
-1.32895 
-1.38775 
-1.73512 
-1.57161 
-1.20389 
-0.830319 
-1.0833 
-1.38775 
-1.01711 
-0.956808 
-1.32746 
-1.20389 
-0.764146 
-0.527552 
-0.830319 
-0.98402 
-0.645849 
-0.678935 
-1.01711 
-0.830319 
-0.527552 
-0.275252 
-0.432077 
-0.678935 
-0.401402 
-0.353665 
-0.631198 
-1.0833 
-0.830319 
-0.432077 
-0.562895 
-0.956808 
-0.631198 
-0.497486 
-0.823096 
-0.764146 
-0.336405 
-0.232672 
-0.527552 
-0.550276 
-0.284539 
-0.380112 
-0.645849 
-0.336405 
-4.28196e-12 
-2.9726e-12 
-0.232672 
-0.168202 
-3.62728e-12 
-0.116336 
-0.284539 
-0.232672 
-2.9726e-12 
-1.57513e-12 
-0.122034 
-0.116336 
-2.27387e-12 
-0.0610168 
-0.177353 
-0.527552 
-0.232672 
-0.122034 
-0.275252 
-0.380112 
-0.177353 
-0.198643 
-0.401402 
-0.275252 
-0.122034 
-0.0353591 
-0.0779 
-0.198643 
-0.0786963 
-0.0566296 
-0.176576 
-0.122034 
-1.57513e-12 
-4.8606e-13 
-0.0353591 
-0.0610168 
-1.03059e-12 
-0.0176796 
-0.0786963 
-0.0353591 
-4.8606e-13 
-1.26594e-14 
-4.75984e-14 
-0.0176796 
-2.4936e-13 
-3.01289e-14 
-0.0176796 
-0.0779 
-0.0353591 
-4.75984e-14 
-1.66851e-14 
-0.0566296 
-0.0176796 
-3.21417e-14 
-0.03895 
-0.562895 
-0.432077 
-0.121078 
-0.156916 
-0.497486 
-0.276578 
-0.138997 
-0.359905 
-0.432077 
-0.275252 
-0.0779 
-0.121078 
-0.353665 
-0.176576 
-0.0994891 
-0.276578 
-0.121078 
-0.0779 
-1.66851e-14 
1.926e-14 
-0.0994891 
-0.03895 
1.28749e-15 
-0.060539 
-0.156916 
-0.121078 
1.926e-14 
5.6574e-14 
-0.138997 
-0.060539 
3.7917e-14 
-0.0784578 
-1.13143 
-1.57977 
-1.08796 
-0.779045 
-1.3556 
-1.33387 
-0.933505 
-0.95524 
-1.57977 
-1.80248 
-1.24162 
-1.08796 
-1.69113 
-1.52205 
-1.16479 
-1.33387 
-1.08796 
-1.24162 
-0.644134 
-0.564109 
-1.16479 
-0.942875 
-0.604121 
-0.826037 
-0.779045 
-1.08796 
-0.564109 
-0.403719 
-0.933505 
-0.826037 
-0.483914 
-0.591382 
-1.80248 
-1.7904 
-1.23364 
-1.24162 
-1.79644 
-1.51202 
-1.23763 
-1.52205 
-1.7904 
-1.57161 
-1.0833 
-1.23364 
-1.68101 
-1.32746 
-1.15847 
-1.51202 
-1.23364 
-1.0833 
-0.562895 
-0.64042 
-1.15847 
-0.823096 
-0.601658 
-0.937028 
-1.24162 
-1.23364 
-0.64042 
-0.644134 
-1.23763 
-0.937028 
-0.642277 
-0.942875 
-0.644134 
-0.64042 
-0.177949 
-0.178561 
-0.642277 
-0.409185 
-0.178255 
-0.411347 
-0.64042 
-0.562895 
-0.156916 
-0.177949 
-0.601658 
-0.359905 
-0.167432 
-0.409185 
-0.177949 
-0.156916 
5.6574e-14 
8.59399e-14 
-0.167432 
-0.0784578 
7.12569e-14 
-0.0889747 
-0.178561 
-0.177949 
8.59399e-14 
1.02332e-13 
-0.178255 
-0.0889747 
9.41362e-14 
-0.0892803 
-0.403719 
-0.564109 
-0.156064 
-0.111461 
-0.483914 
-0.360086 
-0.133762 
-0.25759 
-0.564109 
-0.644134 
-0.178561 
-0.156064 
-0.604121 
-0.411347 
-0.167312 
-0.360086 
-0.156064 
-0.178561 
1.02332e-13 
1.01661e-13 
-0.167312 
-0.0892803 
1.01997e-13 
-0.0780319 
-0.111461 
-0.156064 
1.01661e-13 
8.20027e-14 
-0.133762 
-0.0780319 
9.18321e-14 
-0.0557306 
-3.58894e-12 
-0.282377 
-0.150057 
-1.91169e-12 
-0.141188 
-0.216217 
-0.0750283 
-2.75031e-12 
-0.282377 
-0.641936 
-0.340706 
-0.150057 
-0.462156 
-0.491321 
-0.245381 
-0.216217 
-0.150057 
-0.340706 
-0.0156135 
-0.0072684 
-0.245381 
-0.17816 
-0.011441 
-0.0786625 
-1.91169e-12 
-0.150057 
-0.0072684 
-1.02091e-13 
-0.0750283 
-0.0786625 
-0.0036342 
-1.00689e-12 
-0.641936 
-1.01182 
-0.536637 
-0.340706 
-0.826879 
-0.77423 
-0.438671 
-0.491321 
-1.01182 
-1.32126 
-0.700435 
-0.536637 
-1.16654 
-1.01085 
-0.618536 
-0.77423 
-0.536637 
-0.700435 
-0.0303742 
-0.0237811 
-0.618536 
-0.365405 
-0.0270776 
-0.280209 
-0.340706 
-0.536637 
-0.0237811 
-0.0156135 
-0.438671 
-0.280209 
-0.0196973 
-0.17816 
-0.0156135 
-0.0237811 
0.427257 
0.270292 
-0.0196973 
0.201738 
0.348775 
0.127339 
-0.0237811 
-0.0303742 
0.55892 
0.427257 
-0.0270776 
0.264273 
0.493088 
0.201738 
0.427257 
0.55892 
0.952956 
0.728867 
0.493088 
0.755938 
0.840912 
0.578062 
0.270292 
0.427257 
0.728867 
0.461497 
0.348775 
0.578062 
0.595182 
0.365895 
-1.02091e-13 
-0.0072684 
0.118306 
1.48926e-12 
-0.0036342 
0.055519 
0.0591532 
6.93587e-13 
-0.0072684 
-0.0156135 
0.270292 
0.118306 
-0.011441 
0.127339 
0.194299 
0.055519 
0.118306 
0.270292 
0.461497 
0.202299 
0.194299 
0.365895 
0.331898 
0.160303 
1.48926e-12 
0.118306 
0.202299 
2.55385e-12 
0.0591532 
0.160303 
0.101149 
2.02156e-12 
-1.32126 
-1.50549 
-0.797866 
-0.700435 
-1.41338 
-1.15168 
-0.749151 
-1.01085 
-1.50549 
-1.51589 
-0.803221 
-0.797866 
-1.51069 
-1.15955 
-0.800543 
-1.15168 
-0.797866 
-0.803221 
-0.0339946 
-0.0340979 
-0.800543 
-0.418608 
-0.0340463 
-0.415982 
-0.700435 
-0.797866 
-0.0340979 
-0.0303742 
-0.749151 
-0.415982 
-0.0322361 
-0.365405 
-1.51589 
-1.32879 
-0.704016 
-0.803221 
-1.42234 
-1.0164 
-0.753618 
-1.15955 
-1.32879 
-0.951871 
-0.50435 
-0.704016 
-1.14033 
-0.72811 
-0.604183 
-1.0164 
-0.704016 
-0.50435 
-0.0212923 
-0.0296428 
-0.604183 
-0.262821 
-0.0254676 
-0.366829 
-0.803221 
-0.704016 
-0.0296428 
-0.0339946 
-0.753618 
-0.366829 
-0.0318187 
-0.418608 
-0.0339946 
-0.0296428 
0.563449 
0.642513 
-0.0318187 
0.266903 
0.602981 
0.304259 
-0.0296428 
-0.0212923 
0.403552 
0.563449 
-0.0254676 
0.19113 
0.483501 
0.266903 
0.563449 
0.403552 
0.687613 
0.959992 
0.483501 
0.545582 
0.823802 
0.76172 
0.642513 
0.563449 
0.959992 
1.09483 
0.602981 
0.76172 
1.02741 
0.868672 
-0.0303742 
-0.0340979 
0.637608 
0.55892 
-0.0322361 
0.301755 
0.598264 
0.264273 
-0.0340979 
-0.0339946 
0.642513 
0.637608 
-0.0340463 
0.304259 
0.64006 
0.301755 
0.637608 
0.642513 
1.09483 
1.08673 
0.64006 
0.868672 
1.09078 
0.862168 
0.55892 
0.637608 
1.08673 
0.952956 
0.598264 
0.862168 
1.01984 
0.755938 
0.952956 
1.08673 
1.2286 
1.07748 
1.01984 
1.15766 
1.15304 
1.01522 
1.08673 
1.09483 
1.23768 
1.2286 
1.09078 
1.16625 
1.23314 
1.15766 
1.2286 
1.23768 
1.05266 
1.04497 
1.23314 
1.14517 
1.04881 
1.13679 
1.07748 
1.2286 
1.04497 
0.916475 
1.15304 
1.13679 
0.980722 
0.996975 
1.09483 
0.959992 
1.08521 
1.23768 
1.02741 
1.0226 
1.16144 
1.16625 
0.959992 
0.687613 
0.777321 
1.08521 
0.823802 
0.732467 
0.931265 
1.0226 
1.08521 
0.777321 
0.661114 
0.922966 
0.931265 
0.719218 
0.79204 
1.00409 
1.23768 
1.08521 
0.922966 
1.05266 
1.16144 
1.00409 
0.987811 
1.14517 
1.05266 
0.922966 
0.523674 
0.597268 
0.987811 
0.72332 
0.560471 
0.824963 
0.922966 
0.661114 
0.3751 
0.523674 
0.79204 
0.518107 
0.449387 
0.72332 
0.523674 
0.3751 
6.13997e-12 
8.57218e-12 
0.449387 
0.18755 
7.35608e-12 
0.261837 
0.597268 
0.523674 
8.57218e-12 
9.77703e-12 
0.560471 
0.261837 
9.1746e-12 
0.298634 
0.916475 
1.04497 
0.592921 
0.520031 
0.980722 
0.818945 
0.556476 
0.718253 
1.04497 
1.05266 
0.597268 
0.592921 
1.04881 
0.824963 
0.595095 
0.818945 
0.592921 
0.597268 
9.77703e-12 
9.70601e-12 
0.595095 
0.298634 
9.74152e-12 
0.296461 
0.520031 
0.592921 
9.70601e-12 
8.51298e-12 
0.556476 
0.296461 
9.1095e-12 
0.260016 
2.55385e-12 
0.202299 
0.228919 
2.89211e-12 
0.101149 
0.215609 
0.11446 
2.72298e-12 
0.202299 
0.461497 
0.52201 
0.228919 
0.331898 
0.491754 
0.375465 
0.215609 
0.228919 
0.52201 
0.444094 
0.194789 
0.375465 
0.483052 
0.319441 
0.211854 
2.89211e-12 
0.228919 
0.194789 
2.46156e-12 
0.11446 
0.211854 
0.0973944 
2.67684e-12 
0.461497 
0.728867 
0.824235 
0.52201 
0.595182 
0.776551 
0.673123 
0.491754 
0.728867 
0.952956 
1.07748 
0.824235 
0.840912 
1.01522 
0.950855 
0.776551 
0.824235 
1.07748 
0.916475 
0.701126 
0.950855 
0.996975 
0.808801 
0.762681 
0.52201 
0.824235 
0.701126 
0.444094 
0.673123 
0.762681 
0.57261 
0.483052 
0.444094 
0.701126 
0.39786 
0.252034 
0.57261 
0.549493 
0.324947 
0.348064 
0.701126 
0.916475 
0.520031 
0.39786 
0.808801 
0.718253 
0.458946 
0.549493 
0.39786 
0.520031 
8.51298e-12 
6.51327e-12 
0.458946 
0.260016 
7.51313e-12 
0.19893 
0.252034 
0.39786 
6.51327e-12 
4.12632e-12 
0.324947 
0.19893 
5.31979e-12 
0.126017 
2.46156e-12 
0.194789 
0.110581 
1.39899e-12 
0.0973944 
0.152685 
0.0552907 
1.93028e-12 
0.194789 
0.444094 
0.252034 
0.110581 
0.319441 
0.348064 
0.181308 
0.152685 
0.110581 
0.252034 
4.12632e-12 
1.81129e-12 
0.181308 
0.126017 
2.9688e-12 
0.0552907 
1.39899e-12 
0.110581 
1.81129e-12 
4.62483e-16 
0.0552907 
0.0552907 
9.05874e-13 
6.99726e-13 
1.51707e-11 
0.808321 
1.08625 
2.03889e-11 
0.404161 
0.947286 
0.543125 
1.77798e-11 
0.808321 
1.28304 
1.72409 
1.08625 
1.04568 
1.50356 
1.40517 
0.947286 
1.08625 
1.72409 
1.92066 
1.21009 
1.40517 
1.82238 
1.56538 
1.14817 
2.03889e-11 
1.08625 
1.21009 
2.27132e-11 
0.543125 
1.14817 
0.605044 
2.15511e-11 
1.28304 
1.39912 
1.88 
1.72409 
1.34108 
1.63956 
1.80204 
1.50356 
1.39912 
1.19428 
1.60474 
1.88 
1.2967 
1.39951 
1.74237 
1.63956 
1.88 
1.60474 
1.78779 
2.09439 
1.74237 
1.69627 
1.94109 
1.98719 
1.72409 
1.88 
2.09439 
1.92066 
1.80204 
1.98719 
2.00753 
1.82238 
1.92066 
2.09439 
2.01088 
1.84394 
2.00753 
2.05263 
1.92741 
1.8823 
2.09439 
1.78779 
1.71662 
2.01088 
1.94109 
1.7522 
1.86375 
2.05263 
2.01088 
1.71662 
1.41957 
1.66265 
1.86375 
1.56809 
1.54111 
1.83677 
1.84394 
2.01088 
1.66265 
1.52434 
1.92741 
1.83677 
1.5935 
1.68414 
2.27132e-11 
1.21009 
1.16165 
2.18016e-11 
0.605044 
1.18587 
0.580823 
2.22574e-11 
1.21009 
1.92066 
1.84394 
1.16165 
1.56538 
1.8823 
1.50279 
1.18587 
1.16165 
1.84394 
1.52434 
0.960084 
1.50279 
1.68414 
1.24221 
1.06087 
2.18016e-11 
1.16165 
0.960084 
1.80137e-11 
0.580823 
1.06087 
0.480042 
1.99077e-11 
1.19428 
0.750436 
1.00843 
1.60474 
0.972357 
0.879433 
1.30659 
1.39951 
0.750436 
0.17339 
0.233217 
1.00843 
0.461913 
0.203304 
0.620824 
0.879433 
1.00843 
0.233217 
0.259921 
1.12351 
0.620824 
0.246569 
0.691717 
1.06597 
1.60474 
1.00843 
1.12351 
1.78779 
1.30659 
1.06597 
1.45565 
1.69627 
0.17339 
-0.426687 
-0.572885 
0.233217 
-0.126648 
-0.499786 
-0.169834 
0.203304 
-0.426687 
-0.951871 
-1.27833 
-0.572885 
-0.689279 
-1.1151 
-0.925608 
-0.499786 
-0.572885 
-1.27833 
-1.424 
-0.638099 
-0.925608 
-1.35117 
-1.03105 
-0.605492 
0.233217 
-0.572885 
-0.638099 
0.259921 
-0.169834 
-0.605492 
-0.189089 
0.246569 
0.259921 
-0.638099 
-0.612765 
0.249614 
-0.189089 
-0.625432 
-0.181575 
0.254768 
-0.638099 
-1.424 
-1.36754 
-0.612765 
-1.03105 
-1.39577 
-0.990155 
-0.625432 
-0.612765 
-1.36754 
-1.13143 
-0.506935 
-0.990155 
-1.24949 
-0.819185 
-0.55985 
0.249614 
-0.612765 
-0.506935 
0.206452 
-0.181575 
-0.55985 
-0.150241 
0.228033 
1.78779 
1.12351 
1.07885 
1.71662 
1.45565 
1.10118 
1.39774 
1.7522 
1.12351 
0.259921 
0.249614 
1.07885 
0.691717 
0.254768 
0.664234 
1.10118 
1.07885 
0.249614 
0.206452 
0.892275 
0.664234 
0.228033 
0.549364 
0.985565 
1.71662 
1.07885 
0.892275 
1.41957 
1.39774 
0.985565 
1.15592 
1.56809 
1.41957 
0.892275 
0.613955 
0.976487 
1.15592 
0.753115 
0.795221 
1.19803 
0.892275 
0.206452 
0.142087 
0.613955 
0.549364 
0.17427 
0.378021 
0.753115 
0.613955 
0.142087 
0.0736303 
0.317752 
0.378021 
0.107859 
0.195691 
0.465854 
0.976487 
0.613955 
0.317752 
0.504952 
0.795221 
0.465854 
0.411352 
0.740719 
0.206452 
-0.506935 
-0.34898 
0.142087 
-0.150241 
-0.427957 
-0.103446 
0.17427 
-0.506935 
-1.13143 
-0.779045 
-0.34898 
-0.819185 
-0.95524 
-0.564012 
-0.427957 
-0.34898 
-0.779045 
-0.403719 
-0.180727 
-0.564012 
-0.591382 
-0.292223 
-0.264853 
0.142087 
-0.34898 
-0.180727 
0.0736303 
-0.103446 
-0.264853 
-0.0535482 
0.107859 
0.0736303 
-0.180727 
-0.0497372 
0.0204078 
-0.0535482 
-0.115232 
-0.0146647 
0.0470191 
-0.180727 
-0.403719 
-0.111461 
-0.0497372 
-0.292223 
-0.25759 
-0.0805992 
-0.115232 
-0.0497372 
-0.111461 
8.20027e-14 
4.38156e-14 
-0.0805992 
-0.0557306 
6.29092e-14 
-0.0248686 
0.0204078 
-0.0497372 
4.38156e-14 
-9.57315e-15 
-0.0146647 
-0.0248686 
1.71212e-14 
0.0102039 
0.504952 
0.317752 
0.0874393 
0.138474 
0.411352 
0.202596 
0.112956 
0.321713 
0.317752 
0.0736303 
0.0204078 
0.0874393 
0.195691 
0.0470191 
0.0539236 
0.202596 
0.0874393 
0.0204078 
-9.57315e-15 
-7.20186e-14 
0.0539236 
0.0102039 
-4.07959e-14 
0.0437197 
0.138474 
0.0874393 
-7.20186e-14 
-1.33788e-13 
0.112956 
0.0437197 
-1.02903e-13 
0.0692368 
1.80137e-11 
0.960084 
0.659451 
1.23618e-11 
0.480042 
0.809768 
0.329726 
1.51878e-11 
0.960084 
1.52434 
1.04766 
0.659451 
1.24221 
1.286 
0.853555 
0.809768 
0.659451 
1.04766 
0.540411 
0.339479 
0.853555 
0.794035 
0.439945 
0.499465 
1.23618e-11 
0.659451 
0.339479 
6.34942e-12 
0.329726 
0.499465 
0.16974 
9.35561e-12 
1.52434 
1.66265 
1.14327 
1.04766 
1.5935 
1.40296 
1.09546 
1.286 
1.66265 
1.41957 
0.976487 
1.14327 
1.54111 
1.19803 
1.05988 
1.40296 
1.14327 
0.976487 
0.504952 
0.59058 
1.05988 
0.740719 
0.547766 
0.866925 
1.04766 
1.14327 
0.59058 
0.540411 
1.09546 
0.866925 
0.565496 
0.794035 
0.540411 
0.59058 
0.161283 
0.146675 
0.565496 
0.375932 
0.153979 
0.343543 
0.59058 
0.504952 
0.138474 
0.161283 
0.547766 
0.321713 
0.149878 
0.375932 
0.161283 
0.138474 
-1.33788e-13 
-1.84626e-13 
0.149878 
0.0692368 
-1.59207e-13 
0.0806413 
0.146675 
0.161283 
-1.84626e-13 
-2.02414e-13 
0.153979 
0.0806413 
-1.9352e-13 
0.0733373 
6.34942e-12 
0.339479 
0.0910905 
1.6552e-12 
0.16974 
0.215285 
0.0455453 
4.00231e-12 
0.339479 
0.540411 
0.146675 
0.0910905 
0.439945 
0.343543 
0.118883 
0.215285 
0.0910905 
0.146675 
-2.02414e-13 
-1.91705e-13 
0.118883 
0.0733373 
-1.97059e-13 
0.0455453 
1.6552e-12 
0.0910905 
-1.91705e-13 
-8.79049e-16 
0.0455453 
0.0455453 
-9.6292e-14 
8.27161e-13 
1.02252e-15 
-5.23864e-12 
-0.320148 
-6.01282e-12 
-2.61881e-12 
-0.160074 
-0.160074 
-3.0059e-12 
-5.23864e-12 
-8.31285e-12 
-0.50789 
-0.320148 
-6.77574e-12 
-0.253945 
-0.414019 
-0.160074 
-0.320148 
-0.50789 
-0.895365 
-0.56447 
-0.414019 
-0.701628 
-0.729918 
-0.442309 
-6.01282e-12 
-0.320148 
-0.56447 
-1.06056e-11 
-0.160074 
-0.442309 
-0.282235 
-8.30922e-12 
-8.31285e-12 
-9.06186e-12 
-0.553614 
-0.50789 
-8.68735e-12 
-0.276807 
-0.530752 
-0.253945 
-9.06186e-12 
-7.73403e-12 
-0.472471 
-0.553614 
-8.39794e-12 
-0.236235 
-0.513043 
-0.276807 
-0.553614 
-0.472471 
-0.832846 
-0.975915 
-0.513043 
-0.652658 
-0.904381 
-0.764765 
-0.50789 
-0.553614 
-0.975915 
-0.895365 
-0.530752 
-0.764765 
-0.93564 
-0.701628 
-0.895365 
-0.975915 
-1.14782 
-1.05312 
-0.93564 
-1.06187 
-1.10047 
-0.974241 
-0.975915 
-0.832846 
-0.979535 
-1.14782 
-0.904381 
-0.906191 
-1.06368 
-1.06187 
-1.14782 
-0.979535 
-0.867097 
-1.01609 
-1.06368 
-0.923316 
-0.941592 
-1.08195 
-1.05312 
-1.14782 
-1.01609 
-0.932306 
-1.10047 
-1.08195 
-0.974196 
-0.992711 
-1.06056e-11 
-0.56447 
-0.66395 
-1.24748e-11 
-0.282235 
-0.61421 
-0.331975 
-1.15402e-11 
-0.56447 
-0.895365 
-1.05312 
-0.66395 
-0.729918 
-0.974241 
-0.858533 
-0.61421 
-0.66395 
-1.05312 
-0.932306 
-0.58783 
-0.858533 
-0.992711 
-0.760068 
-0.62589 
-1.24748e-11 
-0.66395 
-0.58783 
-1.10459e-11 
-0.331975 
-0.62589 
-0.293915 
-1.17604e-11 
-7.73403e-12 
-4.86158e-12 
-0.296979 
-0.472471 
-6.2978e-12 
-0.14849 
-0.384725 
-0.236235 
-4.86158e-12 
-1.12999e-12 
-0.0690121 
-0.296979 
-2.99579e-12 
-0.0345061 
-0.182996 
-0.14849 
-0.296979 
-0.0690121 
-0.121661 
-0.523492 
-0.182996 
-0.0953365 
-0.322576 
-0.410236 
-0.472471 
-0.296979 
-0.523492 
-0.832846 
-0.384725 
-0.410236 
-0.678169 
-0.652658 
-1.12999e-12 
2.74809e-12 
0.167897 
-0.0690121 
8.0905e-13 
0.0839487 
0.0494426 
-0.0345061 
2.74809e-12 
6.13997e-12 
0.3751 
0.167897 
4.44403e-12 
0.18755 
0.271499 
0.0839487 
0.167897 
0.3751 
0.661114 
0.295914 
0.271499 
0.518107 
0.478514 
0.231906 
-0.0690121 
0.167897 
0.295914 
-0.121661 
0.0494426 
0.231906 
0.0871267 
-0.0953365 
-0.121661 
0.295914 
0.347887 
-0.143158 
0.0871267 
0.321901 
0.102365 
-0.132409 
0.295914 
0.661114 
0.777321 
0.347887 
0.478514 
0.719218 
0.562604 
0.321901 
0.347887 
0.777321 
0.687613 
0.30765 