# vtk DataFile Version 3.0
TPZGeoMesh VTK Visualization
ASCII

DATASET UNSTRUCTURED_GRID
POINTS 128 float
0.5 0.5 0 
0.5 0.75 0 
0.25 0.75 0 
0.25 0.5 0 
0.5 0.625 0 
0.375 0.75 0 
0.25 0.625 0 
0.375 0.5 0 
0.5 0.75 0 
0.5 1 0 
0.25 1 0 
0.25 0.75 0 
0.5 0.875 0 
0.375 1 0 
0.25 0.875 0 
0.375 0.75 0 
0.25 0.75 0 
0.25 1 0 
0 1 0 
0 0.75 0 
0.25 0.875 0 
0.125 1 0 
0 0.875 0 
0.125 0.75 0 
0.25 0.5 0 
0.25 0.75 0 
0 0.75 0 
0 0.5 0 
0.25 0.625 0 
0.125 0.75 0 
0 0.625 0 
0.125 0.5 0 
0.5 1 0 
0.5 0.75 0 
0.75 0.75 0 
0.75 1 0 
0.5 0.875 0 
0.625 0.75 0 
0.75 0.875 0 
0.625 1 0 
0.5 0.75 0 
0.5 0.5 0 
0.75 0.5 0 
0.75 0.75 0 
0.5 0.625 0 
0.625 0.5 0 
0.75 0.625 0 
0.625 0.75 0 
0.75 0.75 0 
0.75 0.5 0 
1 0.5 0 
1 0.75 0 
0.75 0.625 0 
0.875 0.5 0 
1 0.625 0 
0.875 0.75 0 
0.75 1 0 
0.75 0.75 0 
1 0.75 0 
1 1 0 
0.75 0.875 0 
0.875 0.75 0 
1 0.875 0 
0.875 1 0 
0.5 0 0 
0.5 0.25 0 
0.25 0.25 0 
0.25 0 0 
0.5 0.125 0 
0.375 0.25 0 
0.25 0.125 0 
0.375 0 0 
0.5 0.25 0 
0.5 0.5 0 
0.25 0.5 0 
0.25 0.25 0 
0.5 0.375 0 
0.375 0.5 0 
0.25 0.375 0 
0.375 0.25 0 
0.25 0.25 0 
0.25 0.5 0 
0 0.5 0 
0 0.25 0 
0.25 0.375 0 
0.125 0.5 0 
0 0.375 0 
0.125 0.25 0 
0.25 0 0 
0.25 0.25 0 
0 0.25 0 
0 0 0 
0.25 0.125 0 
0.125 0.25 0 
0 0.125 0 
0.125 0 0 
1 0 0 
1 0.25 0 
0.75 0.25 0 
0.75 0 0 
1 0.125 0 
0.875 0.25 0 
0.75 0.125 0 
0.875 0 0 
1 0.25 0 
1 0.5 0 
0.75 0.5 0 
0.75 0.25 0 
1 0.375 0 
0.875 0.5 0 
0.75 0.375 0 
0.875 0.25 0 
0.75 0.25 0 
0.75 0.5 0 
0.5 0.5 0 
0.5 0.25 0 
0.75 0.375 0 
0.625 0.5 0 
0.5 0.375 0 
0.625 0.25 0 
0.75 0 0 
0.75 0.25 0 
0.5 0.25 0 
0.5 0 0 
0.75 0.125 0 
0.625 0.25 0 
0.5 0.125 0 
0.625 0 0 
CELLS 16 144
8 0 1 2 3 4 5 6 7
8 8 9 10 11 12 13 14 15
8 16 17 18 19 20 21 22 23
8 24 25 26 27 28 29 30 31
8 32 33 34 35 36 37 38 39
8 40 41 42 43 44 45 46 47
8 48 49 50 51 52 53 54 55
8 56 57 58 59 60 61 62 63
8 64 65 66 67 68 69 70 71
8 72 73 74 75 76 77 78 79
8 80 81 82 83 84 85 86 87
8 88 89 90 91 92 93 94 95
8 96 97 98 99 100 101 102 103
8 104 105 106 107 108 109 110 111
8 112 113 114 115 116 117 118 119
8 120 121 122 123 124 125 126 127

CELL_TYPES 16
23
23
23
23
23
23
23
23
23
23
23
23
23
23
23
23

CELL_DATA 16
FIELD FieldData 2
material 1 16 int
1
1
1
1
1
1
1
1
1
1
1
1
1
1
1
1
elindex 1 16 int
17
18
19
20
21
22
23
24
25
26
27
28
29
30
31
32
POINT_DATA 128
SCALARS Sol float
LOOKUP_TABLE default
0.0657366 
0.0493862 
0.0371652 
0.0493862 
0.0575614 
0.0432757 
0.0432757 
0.0575614 
0.0493862 
2.64434e-13 
2.00374e-13 
0.0371652 
0.0246931 
2.32404e-13 
0.0185826 
0.0432757 
0.0371652 
2.00374e-13 
1.48139e-15 
2.00397e-13 
0.0185826 
1.00928e-13 
1.00939e-13 
0.0185826 
0.0493862 
0.0371652 
2.00397e-13 
2.64341e-13 
0.0432757 
0.0185826 
2.32369e-13 
0.0246931 
2.64434e-13 
0.0493862 
0.0371652 
2.00372e-13 
0.0246931 
0.0432757 
0.0185826 
2.32403e-13 
0.0493862 
0.0657366 
0.0493862 
0.0371652 
0.0575614 
0.0575614 
0.0432757 
0.0432757 
0.0371652 
0.0493862 
2.64434e-13 
2.00372e-13 
0.0432757 
0.0246931 
2.32403e-13 
0.0185826 
2.00372e-13 
0.0371652 
2.00372e-13 
1.48803e-15 
0.0185826 
0.0185826 
1.0093e-13 
1.0093e-13 
2.64341e-13 
0.0493862 
0.0371652 
2.0072e-13 
0.0246931 
0.0432757 
0.0185826 
2.32531e-13 
0.0493862 
0.0657366 
0.0493862 
0.0371652 
0.0575614 
0.0575614 
0.0432757 
0.0432757 
0.0371652 
0.0493862 
2.64341e-13 
2.0072e-13 
0.0432757 
0.0246931 
2.32531e-13 
0.0185826 
2.0072e-13 
0.0371652 
2.0072e-13 
1.87696e-16 
0.0185826 
0.0185826 
1.00454e-13 
1.00454e-13 
1.48139e-15 
2.00374e-13 
0.0371652 
2.00397e-13 
1.00928e-13 
0.0185826 
0.0185826 
1.00939e-13 
2.00374e-13 
2.64434e-13 
0.0493862 
0.0371652 
2.32404e-13 
0.0246931 
0.0432757 
0.0185826 
0.0371652 
0.0493862 
0.0657366 
0.0493862 
0.0432757 
0.0575614 
0.0575614 
0.0432757 
2.00397e-13 
0.0371652 
0.0493862 
2.64341e-13 
0.0185826 
0.0432757 
0.0246931 
2.32369e-13 
SCALARS Force float
LOOKUP_TABLE default
1 
0.875 
0.75 
0.875 
0.96875 
0.84375 
0.84375 
0.96875 
0.875 
0.5 
0.375 
0.75 
0.71875 
0.46875 
0.59375 
0.84375 
0.75 
0.375 
0 
0.375 
0.59375 
0.21875 
0.21875 
0.59375 
0.875 
0.75 
0.375 
0.5 
0.84375 
0.59375 
0.46875 
0.71875 
0.5 
0.875 
0.75 
0.375 
0.71875 
0.84375 
0.59375 
0.46875 
0.875 
1 
0.875 
0.75 
0.96875 
0.96875 
0.84375 
0.84375 
0.75 
0.875 
0.5 
0.375 
0.84375 
0.71875 
0.46875 
0.59375 
0.375 
0.75 
0.375 
0 
0.59375 
0.59375 
0.21875 
0.21875 
0.5 
0.875 
0.75 
0.375 
0.71875 
0.84375 
0.59375 
0.46875 
0.875 
1 
0.875 
0.75 
0.96875 
0.96875 
0.84375 
0.84375 
0.75 
0.875 
0.5 
0.375 
0.84375 
0.71875 
0.46875 
0.59375 
0.375 
0.75 
0.375 
0 
0.59375 
0.59375 
0.21875 
0.21875 
0 
0.375 
0.75 
0.375 
0.21875 
0.59375 
0.59375 
0.21875 
0.375 
0.5 
0.875 
0.75 
0.46875 
0.71875 
0.84375 
0.59375 
0.75 
0.875 
1 
0.875 
0.84375 
0.96875 
0.96875 
0.84375 
0.375 
0.75 
0.875 
0.5 
0.59375 
0.84375 
0.71875 
0.46875 
SCALARS SolExact float
LOOKUP_TABLE default
0.0625 
0.046875 
0.0351562 
0.046875 
0.0585937 
0.0439453 
0.0439453 
0.0585938 
0.046875 
0 
0 
0.0351562 
0.0273437 
0 
0.0205078 
0.0439453 
0.0351562 
0 
0 
0 
0.0205078 
0 
0 
0.0205078 
0.046875 
0.0351562 
0 
0 
0.0439453 
0.0205078 
0 
0.0273438 
0 
0.046875 
0.0351562 
0 
0.0273437 
0.0439453 
0.0205078 
0 
0.046875 
0.0625 
0.046875 
0.0351562 
0.0585937 
0.0585937 
0.0439453 
0.0439453 
0.0351562 
0.046875 
0 
0 
0.0439453 
0.0273437 
0 
0.0205078 
0 
0.0351562 
0 
0 
0.0205078 
0.0205078 
0 
0 
0 
0.046875 
0.0351563 
0 
0.0273438 
0.0439453 
0.0205078 
0 
0.046875 
0.0625 
0.046875 
0.0351563 
0.0585938 
0.0585938 
0.0439453 
0.0439453 
0.0351563 
0.046875 
0 
0 
0.0439453 
0.0273438 
0 
0.0205078 
0 
0.0351563 
0 
0 
0.0205078 
0.0205078 
0 
0 
0 
0 
0.0351563 
0 
0 
0.0205078 
0.0205078 
0 
0 
0 
0.046875 
0.0351563 
0 
0.0273437 
0.0439453 
0.0205078 
0.0351563 
0.046875 
0.0625 
0.046875 
0.0439453 
0.0585937 
0.0585938 
0.0439453 
0 
0.0351563 
0.046875 
0 
0.0205078 
0.0439453 
0.0273438 
0 
VECTORS DSol float
0.0654018 -0.0654018 0 
0.0488839 -0.0654018 0 
0.0488839 -0.0488839 0 
0.0654018 -0.0488839 0 
0.0571429 -0.0654018 0 
0.0488839 -0.0571429 0 
0.0571429 -0.0488839 0 
0.0654018 -0.0571429 0 
0.0488839 -0.197545 0 
2.56241e-13 -0.197545 0 
2.56241e-13 -0.148661 0 
0.0488839 -0.148661 0 
0.024442 -0.197545 0 
2.56241e-13 -0.173103 0 
0.024442 -0.148661 0 
0.0488839 -0.173103 0 
0.148661 -0.148661 0 
7.9557e-13 -0.148661 0 
7.9557e-13 -7.95663e-13 0 
0.148661 -7.95663e-13 0 
0.0743304 -0.148661 0 
7.9557e-13 -0.0743304 0 
0.0743304 -7.95663e-13 0 
0.148661 -0.0743304 0 
0.197545 -0.0488839 0 
0.148661 -0.0488839 0 
0.148661 -2.55776e-13 0 
0.197545 -2.55776e-13 0 
0.173103 -0.0488839 0 
0.148661 -0.024442 0 
0.173103 -2.55776e-13 0 
0.197545 -0.024442 0 
-2.56248e-13 -0.197545 0 
-0.0488839 -0.197545 0 
-0.0488839 -0.148661 0 
-2.56248e-13 -0.148661 0 
-0.024442 -0.197545 0 
-0.0488839 -0.173103 0 
-0.024442 -0.148661 0 
-2.56248e-13 -0.173103 0 
-0.0488839 -0.0654018 0 
-0.0654018 -0.0654018 0 
-0.0654018 -0.0488839 0 
-0.0488839 -0.0488839 0 
-0.0571429 -0.0654018 0 
-0.0654018 -0.0571429 0 
-0.0571429 -0.0488839 0 
-0.0488839 -0.0571429 0 
-0.148661 -0.0488839 0 
-0.197545 -0.0488839 0 
-0.197545 -2.56248e-13 0 
-0.148661 -2.56248e-13 0 
-0.173103 -0.0488839 0 
-0.197545 -0.024442 0 
-0.173103 -2.56248e-13 0 
-0.148661 -0.024442 0 
-7.95537e-13 -0.148661 0 
-0.148661 -0.148661 0 
-0.148661 -7.95537e-13 0 
-7.95537e-13 -7.95537e-13 0 
-0.0743304 -0.148661 0 
-0.148661 -0.0743304 0 
-0.0743304 -7.95537e-13 0 
-7.95537e-13 -0.0743304 0 
2.54483e-13 0.197545 0 
0.0488839 0.197545 0 
0.0488839 0.148661 0 
2.54483e-13 0.148661 0 
0.024442 0.197545 0 
0.0488839 0.173103 0 
0.024442 0.148661 0 
2.54483e-13 0.173103 0 
0.0488839 0.0654018 0 
0.0654018 0.0654018 0 
0.0654018 0.0488839 0 
0.0488839 0.0488839 0 
0.0571429 0.0654018 0 
0.0654018 0.0571429 0 
0.0571429 0.0488839 0 
0.0488839 0.0571429 0 
0.148661 0.0488839 0 
0.197545 0.0488839 0 
0.197545 2.54483e-13 0 
0.148661 2.54483e-13 0 
0.173103 0.0488839 0 
0.197545 0.024442 0 
0.173103 2.54483e-13 0 
0.148661 0.024442 0 
8.02131e-13 0.148661 0 
0.148661 0.148661 0 
0.148661 8.02131e-13 0 
8.02131e-13 8.02131e-13 0 
0.0743304 0.148661 0 
0.148661 0.0743304 0 
0.0743304 8.02131e-13 0 
8.02131e-13 0.0743304 0 
-7.95663e-13 7.9557e-13 0 
-0.148661 7.9557e-13 0 
-0.148661 0.148661 0 
-7.95663e-13 0.148661 0 
-0.0743304 7.9557e-13 0 
-0.148661 0.0743304 0 
-0.0743304 0.148661 0 
-7.95663e-13 0.0743304 0 
-0.148661 2.56241e-13 0 
-0.197545 2.56241e-13 0 
-0.197545 0.0488839 0 
-0.148661 0.0488839 0 
-0.173103 2.56241e-13 0 
-0.197545 0.024442 0 
-0.173103 0.0488839 0 
-0.148661 0.024442 0 
-0.0488839 0.0488839 0 
-0.0654018 0.0488839 0 
-0.0654018 0.0654018 0 
-0.0488839 0.0654018 0 
-0.0571429 0.0488839 0 
-0.0654018 0.0571429 0 
-0.0571429 0.0654018 0 
-0.0488839 0.0571429 0 
-2.55776e-13 0.148661 0 
-0.0488839 0.148661 0 
-0.0488839 0.197545 0 
-2.55776e-13 0.197545 0 
-0.024442 0.148661 0 
-0.0488839 0.173103 0 
-0.024442 0.197545 0 
-2.55776e-13 0.173103 0 
VECTORS Flux float
-0.0654018 -0.0654018 0 
-0.0654018 -0.0488839 0 
-0.0488839 -0.0488839 0 
-0.0488839 -0.0654018 0 
-0.0654018 -0.0571429 0 
-0.0571429 -0.0488839 0 
-0.0488839 -0.0571429 0 
-0.0571429 -0.0654018 0 
-0.197545 -0.0488839 0 
-0.197545 -1.01886e-12 0 
-0.148661 -5.43158e-13 0 
-0.148661 -0.0488839 0 
-0.197545 -0.024442 0 
-0.173103 -7.57415e-13 0 
-0.148661 -0.024442 0 
-0.173103 -0.0488839 0 
-0.148661 -0.148661 0 
-0.148661 -1.08249e-12 0 
-7.95663e-13 -7.9557e-13 0 
-7.95663e-13 -0.148661 0 
-0.148661 -0.0743304 0 
-0.0743304 -8.67299e-13 0 
-7.95663e-13 -0.0743304 0 
-0.0743304 -0.148661 0 
-0.0488839 -0.197545 0 
-0.0488839 -0.148661 0 
-2.55776e-13 -0.148661 0 
-2.55776e-13 -0.197545 0 
-0.0488839 -0.173103 0 
-0.024442 -0.148661 0 
-2.55776e-13 -0.173103 0 
-0.024442 -0.197545 0 
0.197545 5.06367e-13 0 
0.197545 -0.0488839 0 
0.148661 -0.0488839 0 
0.148661 1.8654e-14 0 
0.197545 -0.024442 0 
0.173103 -0.0488839 0 
0.148661 -0.024442 0 
0.173103 2.37931e-13 0 
0.0654018 -0.0488839 0 
0.0654018 -0.0654018 0 
0.0488839 -0.0654018 0 
0.0488839 -0.0488839 0 
0.0654018 -0.0571429 0 
0.0571429 -0.0654018 0 
0.0488839 -0.0571429 0 
0.0571429 -0.0488839 0 
0.0488839 -0.148661 0 
0.0488839 -0.197545 0 
2.56248e-13 -0.197545 0 
2.56248e-13 -0.148661 0 
0.0488839 -0.173103 0 
0.024442 -0.197545 0 
2.56248e-13 -0.173103 0 
0.024442 -0.148661 0 
0.148661 -5.20635e-13 0 
0.148661 -0.148661 0 
7.95537e-13 -0.148661 0 
7.95537e-13 -7.95537e-13 0 
0.148661 -0.0743304 0 
0.0743304 -0.148661 0 
7.95537e-13 -0.0743304 0 
0.0743304 -7.26811e-13 0 
0.197545 3.125e-13 0 
0.197545 -0.0488839 0 
0.148661 -0.0488839 0 
0.148661 -6.27152e-14 0 
0.197545 -0.024442 0 
0.173103 -0.0488839 0 
0.148661 -0.024442 0 
0.173103 1.05571e-13 0 
0.0654018 -0.0488839 0 
0.0654018 -0.0654018 0 
0.0488839 -0.0654018 0 
0.0488839 -0.0488839 0 
0.0654018 -0.0571429 0 
0.0571429 -0.0654018 0 
0.0488839 -0.0571429 0 
0.0571429 -0.0488839 0 
0.0488839 -0.148661 0 
0.0488839 -0.197545 0 
2.54483e-13 -0.197545 0 
2.54483e-13 -0.148661 0 
0.0488839 -0.173103 0 
0.024442 -0.197545 0 
2.54483e-13 -0.173103 0 
0.024442 -0.148661 0 
0.148661 -6.10363e-13 0 
0.148661 -0.148661 0 
8.02131e-13 -0.148661 0 
8.02131e-13 -8.02131e-13 0 
0.148661 -0.0743304 0 
0.0743304 -0.148661 0 
8.02131e-13 -0.0743304 0 
0.0743304 -7.54189e-13 0 
7.9557e-13 7.95663e-13 0 
7.9557e-13 0.148661 0 
0.148661 0.148661 0 
0.148661 1.00903e-12 0 
7.9557e-13 0.0743304 0 
0.0743304 0.148661 0 
0.148661 0.0743304 0 
0.0743304 8.49006e-13 0 
2.56241e-13 0.148661 0 
2.56241e-13 0.197545 0 
0.0488839 0.197545 0 
0.0488839 0.148661 0 
2.56241e-13 0.173103 0 
0.024442 0.197545 0 
0.0488839 0.173103 0 
0.024442 0.148661 0 
0.0488839 0.0488839 0 
0.0488839 0.0654018 0 
0.0654018 0.0654018 0 
0.0654018 0.0488839 0 
0.0488839 0.0571429 0 
0.0571429 0.0654018 0 
0.0654018 0.0571429 0 
0.0571429 0.0488839 0 
0.148661 4.69149e-13 0 
0.148661 0.0488839 0 
0.197545 0.0488839 0 
0.197545 8.22759e-13 0 
0.148661 0.024442 0 
0.173103 0.0488839 0 
0.197545 0.024442 0 
0.173103 6.28418e-13 0 
VECTORS DSolExact float
-6.4504e-14 -3.45834e-13 0 
-4.10255e-13 -0.125 0 
0.09375 -0.09375 0 
0.125 -5.15754e-13 0 
-2.86646e-13 -0.0625 0 
0.046875 -0.117188 0 
0.117187 -0.046875 0 
0.0625 -4.84456e-13 0 
-4.10255e-13 -0.125 0 
-0 -0.25 0 
0 -0.1875 0 
0.09375 -0.09375 0 
-3.44863e-13 -0.1875 0 
0 -0.234375 0 
0.0546875 -0.140625 0 
0.046875 -0.117188 0 
0.09375 -0.09375 0 
0 -0.1875 0 
0 -0 0 
0.1875 -0 0 
0.0546875 -0.140625 0 
0 -0.109375 0 
0.109375 -0 0 
0.140625 -0.0546875 0 
0.125 -5.15754e-13 0 
0.09375 -0.09375 0 
0.1875 -0 0 
0.25 -0 0 
0.117187 -0.046875 0 
0.140625 -0.0546875 0 
0.234375 -0 0 
0.1875 -3.75658e-13 0 
-0 -0.25 0 
-4.10255e-13 -0.125 0 
-0.09375 -0.09375 0 
-0 -0.1875 0 
-3.44863e-13 -0.1875 0 
-0.046875 -0.117188 0 
-0.0546875 -0.140625 0 
-0 -0.234375 0 
-4.10255e-13 -0.125 0 
-6.4504e-14 -3.45834e-13 0 
-0.125 -5.15754e-13 0 
-0.09375 -0.09375 0 
-2.86646e-13 -0.0625 0 
-0.0625 -4.84456e-13 0 
-0.117188 -0.046875 0 
-0.046875 -0.117188 0 
-0.09375 -0.09375 0 
-0.125 -5.15754e-13 0 
-0.25 -0 0 
-0.1875 -0 0 
-0.117188 -0.046875 0 
-0.1875 -3.75658e-13 0 
-0.234375 -0 0 
-0.140625 -0.0546875 0 
-0 -0.1875 0 
-0.09375 -0.09375 0 
-0.1875 -0 0 
-0 -0 0 
-0.0546875 -0.140625 0 
-0.140625 -0.0546875 0 
-0.109375 -0 0 
-0 -0.109375 0 
0 0.25 0 
2.20678e-13 0.125 0 
0.09375 0.09375 0 
0 0.1875 0 
2.07209e-13 0.1875 0 
0.046875 0.117187 0 
0.0546875 0.140625 0 
0 0.234375 0 
2.20678e-13 0.125 0 
-6.4504e-14 -3.45834e-13 0 
0.125 -5.15754e-13 0 
0.09375 0.09375 0 
1.07674e-13 0.0625 0 
0.0625 -4.84456e-13 0 
0.117188 0.046875 0 
0.046875 0.117187 0 
0.09375 0.09375 0 
0.125 -5.15754e-13 0 
0.25 -0 0 
0.1875 0 0 
0.117188 0.046875 0 
0.1875 -3.75658e-13 0 
0.234375 0 0 
0.140625 0.0546875 0 
0 0.1875 0 
0.09375 0.09375 0 
0.1875 0 0 
0 0 0 
0.0546875 0.140625 0 
0.140625 0.0546875 0 
0.109375 0 0 
0 0.109375 0 
-0 0 0 
-0.1875 0 0 
-0.09375 0.09375 0 
-0 0.1875 0 
-0.109375 0 0 
-0.140625 0.0546875 0 
-0.0546875 0.140625 0 
-0 0.109375 0 
-0.1875 0 0 
-0.25 -0 0 
-0.125 -5.15754e-13 0 
-0.09375 0.09375 0 
-0.234375 0 0 
-0.1875 -3.75658e-13 0 
-0.117188 0.046875 0 
-0.140625 0.0546875 0 
-0.09375 0.09375 0 
-0.125 -5.15754e-13 0 
-6.4504e-14 -3.45834e-13 0 
2.20678e-13 0.125 0 
-0.117188 0.046875 0 
-0.0625 -4.84456e-13 0 
1.07674e-13 0.0625 0 
-0.046875 0.117187 0 
-0 0.1875 0 
-0.09375 0.09375 0 
2.20678e-13 0.125 0 
0 0.25 0 
-0.0546875 0.140625 0 
-0.046875 0.117187 0 
2.07209e-13 0.1875 0 
-0 0.234375 0 
